[Molden Format]
[Atoms] AU
C  1 6  -2.02314079  -0.58126086   0.00000000
C  2 6  -1.32934674   2.08330967   0.00000000
C  3 6   1.13578209   2.67120347   0.00000000
C  4 6   2.54192730  -1.68266883   0.00000000
C  5 6  -3.40872578   3.98815360   0.00000000
N  6 7   3.00326614   0.87379046   0.00000000
N  7 7   0.01131946  -2.25266692   0.00000000
O  8 8   4.19630694  -3.24379048   0.00000000
O  9 8  -4.16423828  -1.37127976   0.00000000
H  10 1   4.83051792   1.36224687   0.00000000
H  11 1  -0.41808301  -4.10076238   0.00000000
H  12 1  -2.66022416   5.89783523   0.00000000
H  13 1  -4.61404979   3.75711569  -1.64837030
H  14 1  -4.61404979   3.75711569   1.64837030
H  15 1   1.79410598   4.59638085   0.00000000
[GTO]
1
s 6
    3.047524902344e+03     1.834737136960e-03
    4.573695068359e+02     1.403732318431e-02
    1.039486846924e+02     6.884261965752e-02
    2.921015548706e+01     2.321844398975e-01
    9.286663055420e+00     4.679413437843e-01
    3.163927078247e+00     3.623119890690e-01
s 3
    7.868272304535e+00    -1.193324178457e-01
    1.881288528442e+00    -1.608541458845e-01
    5.442492365837e-01     1.143456459045e+00
p 3
    7.868272304535e+00     6.899906694889e-02
    1.881288528442e+00     3.164239525795e-01
    5.442492365837e-01     7.443082928658e-01
s 1
    1.687144786119e-01     1.000000000000e+00
p 1
    1.687144786119e-01     1.000000000000e+00
d 1
    8.000000119209e-01     1.000000000000e+00

2
s 6
    3.047524902344e+03     1.834737136960e-03
    4.573695068359e+02     1.403732318431e-02
    1.039486846924e+02     6.884261965752e-02
    2.921015548706e+01     2.321844398975e-01
    9.286663055420e+00     4.679413437843e-01
    3.163927078247e+00     3.623119890690e-01
s 3
    7.868272304535e+00    -1.193324178457e-01
    1.881288528442e+00    -1.608541458845e-01
    5.442492365837e-01     1.143456459045e+00
p 3
    7.868272304535e+00     6.899906694889e-02
    1.881288528442e+00     3.164239525795e-01
    5.442492365837e-01     7.443082928658e-01
s 1
    1.687144786119e-01     1.000000000000e+00
p 1
    1.687144786119e-01     1.000000000000e+00
d 1
    8.000000119209e-01     1.000000000000e+00

3
s 6
    3.047524902344e+03     1.834737136960e-03
    4.573695068359e+02     1.403732318431e-02
    1.039486846924e+02     6.884261965752e-02
    2.921015548706e+01     2.321844398975e-01
    9.286663055420e+00     4.679413437843e-01
    3.163927078247e+00     3.623119890690e-01
s 3
    7.868272304535e+00    -1.193324178457e-01
    1.881288528442e+00    -1.608541458845e-01
    5.442492365837e-01     1.143456459045e+00
p 3
    7.868272304535e+00     6.899906694889e-02
    1.881288528442e+00     3.164239525795e-01
    5.442492365837e-01     7.443082928658e-01
s 1
    1.687144786119e-01     1.000000000000e+00
p 1
    1.687144786119e-01     1.000000000000e+00
d 1
    8.000000119209e-01     1.000000000000e+00

4
s 6
    3.047524902344e+03     1.834737136960e-03
    4.573695068359e+02     1.403732318431e-02
    1.039486846924e+02     6.884261965752e-02
    2.921015548706e+01     2.321844398975e-01
    9.286663055420e+00     4.679413437843e-01
    3.163927078247e+00     3.623119890690e-01
s 3
    7.868272304535e+00    -1.193324178457e-01
    1.881288528442e+00    -1.608541458845e-01
    5.442492365837e-01     1.143456459045e+00
p 3
    7.868272304535e+00     6.899906694889e-02
    1.881288528442e+00     3.164239525795e-01
    5.442492365837e-01     7.443082928658e-01
s 1
    1.687144786119e-01     1.000000000000e+00
p 1
    1.687144786119e-01     1.000000000000e+00
d 1
    8.000000119209e-01     1.000000000000e+00

5
s 6
    3.047524902344e+03     1.834737136960e-03
    4.573695068359e+02     1.403732318431e-02
    1.039486846924e+02     6.884261965752e-02
    2.921015548706e+01     2.321844398975e-01
    9.286663055420e+00     4.679413437843e-01
    3.163927078247e+00     3.623119890690e-01
s 3
    7.868272304535e+00    -1.193324178457e-01
    1.881288528442e+00    -1.608541458845e-01
    5.442492365837e-01     1.143456459045e+00
p 3
    7.868272304535e+00     6.899906694889e-02
    1.881288528442e+00     3.164239525795e-01
    5.442492365837e-01     7.443082928658e-01
s 1
    1.687144786119e-01     1.000000000000e+00
p 1
    1.687144786119e-01     1.000000000000e+00
d 1
    8.000000119209e-01     1.000000000000e+00

6
s 6
    4.173511230469e+03     1.834772177972e-03
    6.274578857422e+02     1.399462670088e-02
    1.429020996094e+02     6.858655065298e-02
    4.023432922363e+01     2.322408705950e-01
    1.282021331787e+01     4.690699577332e-01
    4.390437126160e+00     3.604551851749e-01
s 3
    1.162636184692e+01    -1.149611845613e-01
    2.716279745102e+00    -1.691174805164e-01
    7.722184062004e-01     1.145851969719e+00
p 3
    1.162636184692e+01     6.757974624634e-02
    2.716279745102e+00     3.239072859287e-01
    7.722184062004e-01     7.408951520920e-01
s 1
    2.120314985514e-01     1.000000000000e+00
p 1
    2.120314985514e-01     1.000000000000e+00
d 1
    8.000000119209e-01     1.000000000000e+00

7
s 6
    4.173511230469e+03     1.834772177972e-03
    6.274578857422e+02     1.399462670088e-02
    1.429020996094e+02     6.858655065298e-02
    4.023432922363e+01     2.322408705950e-01
    1.282021331787e+01     4.690699577332e-01
    4.390437126160e+00     3.604551851749e-01
s 3
    1.162636184692e+01    -1.149611845613e-01
    2.716279745102e+00    -1.691174805164e-01
    7.722184062004e-01     1.145851969719e+00
p 3
    1.162636184692e+01     6.757974624634e-02
    2.716279745102e+00     3.239072859287e-01
    7.722184062004e-01     7.408951520920e-01
s 1
    2.120314985514e-01     1.000000000000e+00
p 1
    2.120314985514e-01     1.000000000000e+00
d 1
    8.000000119209e-01     1.000000000000e+00

8
s 6
    5.484671875000e+03     1.831074478105e-03
    8.252349243164e+02     1.395017188042e-02
    1.880469512939e+02     6.844507902861e-02
    5.296450042725e+01     2.327143400908e-01
    1.689756965637e+01     4.701929092407e-01
    5.799635410309e+00     3.585208654404e-01
s 3
    1.553961658478e+01    -1.107775494456e-01
    3.599933624268e+00    -1.480262577534e-01
    1.013761758804e+00     1.130766987801e+00
p 3
    1.553961658478e+01     7.087426632643e-02
    3.599933624268e+00     3.397528529167e-01
    1.013761758804e+00     7.271586060524e-01
s 1
    2.700058221817e-01     1.000000000000e+00
p 1
    2.700058221817e-01     1.000000000000e+00
d 1
    8.000000119209e-01     1.000000000000e+00

9
s 6
    5.484671875000e+03     1.831074478105e-03
    8.252349243164e+02     1.395017188042e-02
    1.880469512939e+02     6.844507902861e-02
    5.296450042725e+01     2.327143400908e-01
    1.689756965637e+01     4.701929092407e-01
    5.799635410309e+00     3.585208654404e-01
s 3
    1.553961658478e+01    -1.107775494456e-01
    3.599933624268e+00    -1.480262577534e-01
    1.013761758804e+00     1.130766987801e+00
p 3
    1.553961658478e+01     7.087426632643e-02
    3.599933624268e+00     3.397528529167e-01
    1.013761758804e+00     7.271586060524e-01
s 1
    2.700058221817e-01     1.000000000000e+00
p 1
    2.700058221817e-01     1.000000000000e+00
d 1
    8.000000119209e-01     1.000000000000e+00

10
s 3
    1.873113632202e+01     3.349460288882e-02
    2.825394392014e+00     2.347269505262e-01
    6.401216983795e-01     8.137573003769e-01
s 1
    1.612777560949e-01     1.000000000000e+00

11
s 3
    1.873113632202e+01     3.349460288882e-02
    2.825394392014e+00     2.347269505262e-01
    6.401216983795e-01     8.137573003769e-01
s 1
    1.612777560949e-01     1.000000000000e+00

12
s 3
    1.873113632202e+01     3.349460288882e-02
    2.825394392014e+00     2.347269505262e-01
    6.401216983795e-01     8.137573003769e-01
s 1
    1.612777560949e-01     1.000000000000e+00

13
s 3
    1.873113632202e+01     3.349460288882e-02
    2.825394392014e+00     2.347269505262e-01
    6.401216983795e-01     8.137573003769e-01
s 1
    1.612777560949e-01     1.000000000000e+00

14
s 3
    1.873113632202e+01     3.349460288882e-02
    2.825394392014e+00     2.347269505262e-01
    6.401216983795e-01     8.137573003769e-01
s 1
    1.612777560949e-01     1.000000000000e+00

15
s 3
    1.873113632202e+01     3.349460288882e-02
    2.825394392014e+00     2.347269505262e-01
    6.401216983795e-01     8.137573003769e-01
s 1
    1.612777560949e-01     1.000000000000e+00

[MO]
Ene=    -19.70291566
Spin= Alpha
Occup=      1.00000000
1     -0.00000062
2      0.00001123
3     -0.00000852
4      0.00000142
5     -0.00000000
6     -0.00071803
7     -0.00055398
8     -0.00028240
9      0.00000000
10     -0.00003636
11      0.00002647
12     -0.00000485
13     -0.00004698
14      0.00000000
15     -0.00000000
16     -0.00001062
17     -0.00005380
18     -0.00000809
19     -0.00000046
20     -0.00000000
21      0.00089155
22      0.00041527
23     -0.00044300
24     -0.00000000
25     -0.00000651
26     -0.00000460
27     -0.00001620
28     -0.00000853
29     -0.00000000
30      0.00000000
31     -0.00000674
32     -0.00000994
33     -0.00000096
34      0.00003122
35      0.00000000
36     -0.00081825
37      0.00013342
38      0.00044517
39     -0.00000000
40      0.00002523
41     -0.00004535
42     -0.00001806
43     -0.00003266
44      0.00000000
45     -0.00000000
46      0.00005919
47      0.00070964
48      0.00001511
49     -0.00000730
50      0.00000000
51     -0.00013959
52      0.00138910
53     -0.00124926
54     -0.00000000
55     -0.00043648
56     -0.00036988
57     -0.00000738
58      0.00059830
59     -0.00000000
60     -0.00000000
61      0.00000074
62      0.00000058
63      0.00000458
64     -0.00000571
65      0.00000000
66      0.00017779
67      0.00005620
68     -0.00002867
69      0.00000000
70      0.00000334
71      0.00000179
72      0.00000166
73      0.00000222
74      0.00000000
75     -0.00000000
76     -0.00003835
77     -0.00012541
78      0.00001920
79      0.00003518
80      0.00000000
81      0.00126525
82     -0.00083000
83     -0.00012320
84      0.00000000
85     -0.00002593
86     -0.00016955
87     -0.00012190
88      0.00015516
89     -0.00000000
90      0.00000000
91     -0.00003818
92     -0.00012205
93     -0.00003326
94     -0.00002085
95      0.00000000
96      0.00130773
97      0.00017264
98      0.00084308
99      0.00000000
100     -0.00017838
101     -0.00001725
102     -0.00011899
103      0.00015546
104     -0.00000000
105     -0.00000000
106      0.99416052
107      0.02429028
108     -0.00118294
109      0.00113135
110      0.00000000
111      0.00195638
112      0.00071019
113     -0.00068563
114     -0.00000000
115     -0.00461491
116     -0.00462748
117     -0.00481189
118     -0.00012534
119      0.00000000
120     -0.00000000
121      0.00016052
122      0.00005519
123      0.00001417
124      0.00000494
125      0.00000000
126     -0.00031815
127     -0.00003852
128      0.00000347
129      0.00000000
130      0.00004033
131      0.00002710
132      0.00002582
133      0.00001380
134     -0.00000000
135      0.00000000
136      0.00006165
137      0.00008376
138      0.00006838
139      0.00008478
140     -0.00000398
141     -0.00000730
142      0.00000042
143     -0.00000191
144      0.00000042
145     -0.00000191
146     -0.00000090
147     -0.00010191
Ene=    -19.68726485
Spin= Alpha
Occup=      1.00000000
1     -0.00006265
2     -0.00072307
3      0.00002078
4      0.00002493
5     -0.00000000
6      0.00015653
7      0.00219296
8      0.00012362
9      0.00000000
10      0.00072292
11      0.00002295
12      0.00001589
13      0.00032888
14     -0.00000000
15      0.00000000
16      0.00000830
17      0.00000829
18      0.00002595
19     -0.00002869
20      0.00000000
21     -0.00077207
22     -0.00137575
23      0.00061284
24     -0.00000000
25      0.00006282
26     -0.00001695
27      0.00003781
28      0.00015036
29     -0.00000000
30     -0.00000000
31      0.00000446
32      0.00000053
33     -0.00001939
34     -0.00003708
35     -0.00000000
36      0.00092044
37     -0.00034428
38     -0.00018281
39      0.00000000
40     -0.00002940
41      0.00003141
42      0.00002420
43      0.00004116
44     -0.00000000
45     -0.00000000
46      0.00000638
47      0.00001458
48     -0.00000315
49      0.00000997
50     -0.00000000
51      0.00034470
52     -0.00017721
53      0.00043010
54      0.00000000
55     -0.00000519
56      0.00002077
57      0.00001708
58     -0.00006028
59     -0.00000000
60     -0.00000000
61      0.00000180
62     -0.00000193
63     -0.00000186
64      0.00005911
65     -0.00000000
66     -0.00082390
67     -0.00024043
68      0.00000413
69      0.00000000
70      0.00002433
71      0.00000395
72      0.00000044
73     -0.00000680
74     -0.00000000
75      0.00000000
76      0.00000858
77      0.00002830
78     -0.00000095
79      0.00000082
80     -0.00000000
81     -0.00044794
82      0.00009018
83      0.00017087
84     -0.00000000
85      0.00003112
86      0.00002420
87      0.00001131
88     -0.00001447
89      0.00000000
90      0.00000000
91      0.00004550
92      0.00015273
93     -0.00004619
94      0.00004908
95      0.00000000
96     -0.00151876
97      0.00010977
98     -0.00086182
99     -0.00000000
100      0.00025107
101     -0.00002003
102      0.00014497
103      0.00001626
104     -0.00000000
105     -0.00000000
106      0.00014136
107     -0.00004011
108      0.00001055
109     -0.00001031
110      0.00000000
111      0.00026128
112     -0.00003994
113      0.00000140
114     -0.00000000
115     -0.00002868
116     -0.00003241
117     -0.00002180
118      0.00001470
119      0.00000000
120      0.00000000
121     -0.99416005
122     -0.02429329
123     -0.00148186
124     -0.00052721
125     -0.00000000
126     -0.00179952
127      0.00095768
128      0.00044663
129     -0.00000000
130      0.00456953
131      0.00470525
132      0.00482241
133     -0.00004877
134     -0.00000000
135     -0.00000000
136     -0.00000202
137      0.00000293
138     -0.00005041
139     -0.00007127
140      0.00004437
141      0.00013094
142     -0.00002640
143      0.00008522
144     -0.00002640
145      0.00008522
146     -0.00001834
147      0.00001078
Ene=    -14.89881223
Spin= Alpha
Occup=      1.00000000
1     -0.00000248
2     -0.00004418
3      0.00004836
4     -0.00001132
5      0.00000000
6      0.00209867
7      0.00115703
8      0.00068931
9     -0.00000000
10      0.00002093
11      0.00004825
12     -0.00000510
13      0.00000872
14      0.00000000
15      0.00000000
16      0.00003827
17      0.00023891
18     -0.00004111
19     -0.00005994
20      0.00000000
21     -0.00322163
22     -0.00177547
23      0.00186501
24      0.00000000
25     -0.00007775
26      0.00001699
27      0.00004866
28      0.00002764
29     -0.00000000
30     -0.00000000
31      0.00000129
32      0.00004795
33      0.00019763
34     -0.00019776
35     -0.00000000
36      0.00393049
37     -0.00034281
38     -0.00281271
39     -0.00000000
40     -0.00001800
41      0.00004359
42     -0.00011348
43      0.00002787
44      0.00000000
45     -0.00000000
46      0.00001291
47      0.00011460
48      0.00005227
49      0.00033315
50      0.00000000
51      0.00230829
52     -0.00028961
53      0.00322540
54     -0.00000000
55      0.00004411
56     -0.00002110
57     -0.00007978
58     -0.00006140
59     -0.00000000
60      0.00000000
61     -0.00000709
62     -0.00001581
63     -0.00004577
64      0.00002398
65     -0.00000000
66     -0.00081042
67     -0.00015586
68      0.00017870
69     -0.00000000
70     -0.00001240
71     -0.00000515
72     -0.00003343
73     -0.00001112
74      0.00000000
75     -0.00000000
76      0.99403597
77      0.03087398
78     -0.00014468
79     -0.00009464
80     -0.00000000
81     -0.00609462
82      0.00201899
83      0.00112233
84     -0.00000000
85     -0.00533161
86     -0.00541949
87     -0.00519910
88      0.00005100
89     -0.00000000
90      0.00000000
91     -0.00028173
92      0.00003040
93     -0.00009225
94      0.00000294
95     -0.00000000
96     -0.00094160
97      0.00044759
98     -0.00116453
99      0.00000000
100      0.00003050
101      0.00003107
102     -0.00002941
103     -0.00004240
104     -0.00000000
105      0.00000000
106     -0.00005320
107     -0.00024255
108      0.00006503
109     -0.00001759
110     -0.00000000
111      0.00153648
112     -0.00056460
113     -0.00024886
114      0.00000000
115     -0.00005241
116     -0.00028497
117     -0.00017792
118      0.00003627
119     -0.00000000
120      0.00000000
121     -0.00001932
122     -0.00007855
123     -0.00001473
124      0.00000978
125      0.00000000
126      0.00054379
127      0.00008208
128     -0.00006554
129     -0.00000000
130     -0.00005305
131     -0.00005648
132     -0.00005550
133     -0.00002197
134     -0.00000000
135      0.00000000
136      0.00020933
137     -0.00014303
138     -0.00014511
139      0.00000356
140     -0.00001151
141      0.00005502
142      0.00001265
143      0.00001758
144      0.00001265
145      0.00001758
146      0.00003710
147      0.00075578
Ene=    -14.86106600
Spin= Alpha
Occup=      1.00000000
1     -0.00001543
2     -0.00002630
3      0.00023233
4     -0.00017170
5     -0.00000000
6      0.00266546
7      0.00389084
8     -0.00086261
9      0.00000000
10      0.00004110
11      0.00000490
12     -0.00012086
13      0.00000811
14      0.00000000
15      0.00000000
16      0.00002005
17      0.00014372
18      0.00006808
19      0.00004763
20      0.00000000
21     -0.00211119
22     -0.00241230
23      0.00084939
24     -0.00000000
25     -0.00000687
26     -0.00006347
27      0.00001058
28      0.00004747
29     -0.00000000
30     -0.00000000
31      0.00000843
32      0.00000661
33     -0.00000728
34     -0.00005137
35     -0.00000000
36      0.00257747
37     -0.00065347
38     -0.00074874
39      0.00000000
40      0.00006849
41      0.00000952
42      0.00001232
43      0.00000938
44     -0.00000000
45      0.00000000
46      0.00000978
47      0.00012566
48     -0.00031364
49     -0.00006095
50      0.00000000
51      0.00218543
52     -0.00320244
53      0.00030738
54      0.00000000
55     -0.00006723
56      0.00003206
57     -0.00008401
58     -0.00007743
59      0.00000000
60      0.00000000
61     -0.00001970
62     -0.00007461
63     -0.00001903
64      0.00008956
65     -0.00000000
66     -0.00066302
67     -0.00024314
68     -0.00000960
69      0.00000000
70     -0.00001303
71     -0.00003978
72     -0.00004804
73     -0.00000609
74     -0.00000000
75     -0.00000000
76      0.00030902
77      0.00003994
78     -0.00000203
79      0.00009133
80      0.00000000
81     -0.00085629
82      0.00110382
83     -0.00033800
84     -0.00000000
85      0.00003301
86      0.00001588
87     -0.00003755
88     -0.00004800
89     -0.00000000
90      0.00000000
91      0.99403041
92      0.03108530
93      0.00019022
94      0.00016702
95     -0.00000000
96     -0.00705542
97     -0.00050249
98     -0.00222134
99     -0.00000000
100     -0.00544067
101     -0.00533794
102     -0.00516267
103      0.00007385
104     -0.00000000
105     -0.00000000
106     -0.00005599
107     -0.00025467
108      0.00002037
109     -0.00006051
110      0.00000000
111      0.00165745
112      0.00018555
113      0.00058457
114     -0.00000000
115     -0.00030107
116     -0.00005104
117     -0.00018235
118      0.00001656
119      0.00000000
120     -0.00000000
121     -0.00007231
122     -0.00032962
123     -0.00004758
124     -0.00003748
125      0.00000000
126      0.00221266
127      0.00019272
128      0.00061507
129     -0.00000000
130     -0.00029238
131     -0.00014279
132     -0.00021948
133      0.00008326
134     -0.00000000
135     -0.00000000
136     -0.00013832
137     -0.00000180
138      0.00025149
139     -0.00010348
140      0.00003155
141      0.00011187
142     -0.00002730
143     -0.00000383
144     -0.00002730
145     -0.00000383
146     -0.00001787
147      0.00012258
Ene=    -10.76033613
Spin= Alpha
Occup=      1.00000000
1     -0.00033105
2     -0.00075875
3     -0.00015165
4      0.00006084
5     -0.00000000
6      0.00253152
7      0.00511693
8      0.00357516
9      0.00000000
10     -0.00013759
11     -0.00008384
12     -0.00028793
13     -0.00004132
14      0.00000000
15      0.00000000
16      0.00004807
17      0.00040908
18     -0.00004964
19      0.00003040
20     -0.00000000
21     -0.00816378
22     -0.00392405
23      0.00344416
24      0.00000000
25     -0.00011340
26     -0.00006927
27      0.00007255
28      0.00006478
29     -0.00000000
30      0.00000000
31     -0.00016621
32     -0.00065536
33     -0.00004166
34      0.00022251
35      0.00000000
36      0.00521379
37     -0.00280461
38     -0.00449474
39      0.00000000
40      0.00009016
41      0.00008183
42     -0.00025961
43     -0.00002602
44      0.00000000
45      0.00000000
46      0.99436854
47      0.03841323
48     -0.00014590
49      0.00024498
50     -0.00000000
51     -0.00313522
52      0.00429770
53     -0.00420427
54      0.00000000
55     -0.00445314
56     -0.00449936
57     -0.00594854
58     -0.00052464
59      0.00000000
60      0.00000000
61     -0.00001072
62     -0.00003710
63     -0.00003837
64      0.00004109
65     -0.00000000
66     -0.00145710
67     -0.00035796
68      0.00032979
69      0.00000000
70      0.00000083
71     -0.00000294
72     -0.00002195
73     -0.00003379
74      0.00000000
75      0.00000000
76     -0.00017645
77      0.00022140
78      0.00004212
79      0.00005061
80      0.00000000
81      0.00014989
82      0.00053855
83      0.00099305
84     -0.00000000
85     -0.00012560
86     -0.00079912
87      0.00011082
88     -0.00006581
89     -0.00000000
90      0.00000000
91     -0.00019666
92      0.00012210
93     -0.00002728
94     -0.00005233
95      0.00000000
96      0.00065584
97     -0.00144923
98     -0.00034123
99     -0.00000000
100     -0.00074285
101     -0.00015385
102      0.00005713
103     -0.00013996
104      0.00000000
105      0.00000000
106     -0.00004939
107      0.00126469
108     -0.00011017
109      0.00009982
110     -0.00000000
111     -0.00801762
112      0.00249919
113     -0.00235400
114      0.00000000
115      0.00042779
116      0.00044653
117      0.00090376
118      0.00040191
119      0.00000000
120      0.00000000
121     -0.00015630
122     -0.00069128
123     -0.00000164
124      0.00001103
125      0.00000000
126      0.00498261
127      0.00106921
128      0.00011665
129      0.00000000
130     -0.00036146
131     -0.00047450
132     -0.00038686
133      0.00001811
134      0.00000000
135      0.00000000
136     -0.00009203
137     -0.00010943
138     -0.00012488
139      0.00005193
140      0.00003985
141     -0.00007291
142     -0.00000940
143      0.00006923
144     -0.00000940
145      0.00006923
146      0.00026111
147      0.00186028
Ene=    -10.70804005
Spin= Alpha
Occup=      1.00000000
1     -0.99442428
2     -0.03926375
3     -0.00006093
4      0.00076009
5     -0.00000000
6      0.01021685
7      0.00767696
8      0.00831992
9      0.00000000
10      0.00416922
11      0.00506229
12      0.00575400
13     -0.00020000
14     -0.00000000
15     -0.00000000
16     -0.00405430
17      0.00021595
18      0.00006321
19     -0.00030534
20     -0.00000000
21     -0.00823978
22     -0.00131412
23      0.00711722
24     -0.00000000
25      0.00033635
26      0.00050306
27      0.00025034
28      0.00008946
29      0.00000000
30     -0.00000000
31      0.00008886
32      0.00028657
33     -0.00014607
34     -0.00007014
35      0.00000000
36      0.00107657
37      0.00108055
38     -0.00107235
39      0.00000000
40     -0.00007435
41     -0.00005670
42      0.00012787
43     -0.00001749
44      0.00000000
45     -0.00000000
46     -0.00003568
47      0.00062619
48     -0.00023969
49     -0.00004666
50      0.00000000
51      0.00102939
52      0.00076043
53     -0.00466967
54      0.00000000
55      0.00016117
56      0.00014530
57      0.00027709
58     -0.00007983
59      0.00000000
60     -0.00000000
61      0.00007556
62      0.00029806
63     -0.00008061
64     -0.00004627
65      0.00000000
66     -0.00267509
67     -0.00109674
68      0.00053208
69     -0.00000000
70     -0.00009561
71      0.00005062
72      0.00010275
73      0.00003822
74     -0.00000000
75      0.00000000
76     -0.00003113
77     -0.00014187
78     -0.00003700
79      0.00003007
80      0.00000000
81      0.00186803
82     -0.00027848
83     -0.00172659
84     -0.00000000
85     -0.00003336
86     -0.00003733
87     -0.00004580
88      0.00007431
89     -0.00000000
90     -0.00000000
91      0.00021541
92     -0.00002436
93      0.00014225
94      0.00007676
95      0.00000000
96     -0.00235955
97     -0.00364101
98     -0.00003092
99     -0.00000000
100      0.00069020
101      0.00043876
102      0.00000463
103     -0.00046077
104      0.00000000
105      0.00000000
106      0.00014325
107      0.00062966
108     -0.00000843
109     -0.00001944
110      0.00000000
111     -0.00435899
112      0.00109697
113     -0.00039976
114     -0.00000000
115      0.00032071
116      0.00041145
117      0.00037411
118      0.00009345
119     -0.00000000
120      0.00000000
121     -0.00000978
122     -0.00148907
123     -0.00013823
124      0.00002244
125      0.00000000
126      0.00957960
127      0.00371639
128      0.00034845
129     -0.00000000
130     -0.00016261
131     -0.00093558
132     -0.00106205
133      0.00013876
134      0.00000000
135      0.00000000
136      0.00001800
137      0.00010936
138     -0.00003015
139     -0.00011089
140      0.00006831
141      0.00001800
142      0.00008828
143      0.00000102
144      0.00008828
145      0.00000102
146      0.00003850
147     -0.00005989
Ene=    -10.64389469
Spin= Alpha
Occup=      1.00000000
1     -0.00446498
2     -0.00053908
3     -0.00002154
4     -0.00021086
5     -0.00000000
6      0.00777582
7      0.00234846
8      0.00336050
9      0.00000000
10     -0.00021091
11     -0.00052105
12     -0.00017611
13     -0.00006113
14      0.00000000
15     -0.00000000
16      0.99250827
17      0.04033781
18      0.00064954
19      0.00003895
20      0.00000000
21     -0.02199382
22     -0.00304633
23      0.00241746
24     -0.00000000
25     -0.00520721
26     -0.00560097
27     -0.00578730
28      0.00008824
29      0.00000000
30     -0.00000000
31      0.05775640
32      0.00179106
33      0.00047335
34      0.00005779
35      0.00000000
36      0.00885321
37     -0.00290340
38     -0.00284684
39     -0.00000000
40     -0.00091332
41     -0.00058350
42     -0.00056772
43     -0.00009682
44     -0.00000000
45     -0.00000000
46      0.00000326
47     -0.00007704
48     -0.00003907
49      0.00003912
50     -0.00000000
51      0.00145044
52     -0.00180717
53      0.00147825
54      0.00000000
55      0.00002461
56      0.00003352
57     -0.00003057
58     -0.00001703
59      0.00000000
60      0.00000000
61      0.00700066
62      0.00023261
63     -0.00024711
64      0.00010794
65     -0.00000000
66      0.00216932
67      0.00153186
68     -0.00047203
69      0.00000000
70     -0.00036165
71     -0.00038577
72     -0.00008261
73      0.00022503
74     -0.00000000
75      0.00000000
76      0.00007086
77      0.00024529
78     -0.00004452
79     -0.00001584
80     -0.00000000
81     -0.00341923
82      0.00172573
83      0.00016967
84     -0.00000000
85      0.00022368
86      0.00015163
87      0.00013134
88      0.00001520
89      0.00000000
90      0.00000000
91      0.00007504
92      0.00019202
93      0.00003332
94      0.00003438
95      0.00000000
96     -0.00308891
97     -0.00048276
98     -0.00142499
99     -0.00000000
100      0.00017405
101      0.00021936
102      0.00009973
103     -0.00000766
104      0.00000000
105     -0.00000000
106     -0.00005978
107     -0.00026871
108      0.00001947
109     -0.00001747
110     -0.00000000
111      0.00179617
112     -0.00024247
113      0.00025773
114     -0.00000000
115     -0.00016822
116     -0.00016357
117     -0.00016369
118      0.00000135
119     -0.00000000
120      0.00000000
121     -0.00000375
122     -0.00007680
123      0.00001388
124      0.00002991
125     -0.00000000
126      0.00038129
127      0.00004948
128     -0.00040401
129     -0.00000000
130      0.00005137
131      0.00002374
132     -0.00007187
133     -0.00003861
134     -0.00000000
135     -0.00000000
136     -0.00013560
137     -0.00008146
138     -0.00012442
139     -0.00000784
140     -0.00010991
141     -0.00040224
142     -0.00015433
143      0.00051407
144     -0.00015433
145      0.00051407
146     -0.00004577
147      0.00064373
Ene=    -10.63519393
Spin= Alpha
Occup=      1.00000000
1      0.00027268
2     -0.00029576
3      0.00002732
4     -0.00001859
5      0.00000000
6      0.00101146
7      0.00129117
8      0.00140225
9     -0.00000000
10      0.00007797
11      0.00013803
12     -0.00007304
13      0.00008451
14     -0.00000000
15      0.00000000
16     -0.05833617
17     -0.00270545
18     -0.00044592
19     -0.00016510
20      0.00000000
21      0.00605131
22      0.00300012
23      0.00229225
24      0.00000000
25     -0.00015920
26     -0.00004809
27      0.00019662
28     -0.00008270
29     -0.00000000
30     -0.00000000
31      0.99239216
32      0.04012713
33      0.00013247
34     -0.00112395
35      0.00000000
36     -0.01307936
37      0.00373008
38      0.00039312
39     -0.00000000
40     -0.00525715
41     -0.00562711
42     -0.00614251
43     -0.00019736
44     -0.00000000
45     -0.00000000
46     -0.00001883
47     -0.00045924
48     -0.00003981
49     -0.00007396
50      0.00000000
51      0.00061977
52     -0.00469282
53      0.00129351
54     -0.00000000
55     -0.00000618
56      0.00005980
57     -0.00016802
58      0.00000351
59      0.00000000
60      0.00000000
61     -0.00075903
62     -0.00016300
63     -0.00007565
64      0.00001945
65     -0.00000000
66     -0.00051047
67     -0.00034096
68     -0.00029584
69     -0.00000000
70      0.00003441
71      0.00008307
72     -0.00006903