[Molden Format]
[Atoms] AU
C  1 6  -2.02314079  -0.58126086   0.00000000
C  2 6  -1.32934674   2.08330967   0.00000000
C  3 6   1.13578209   2.67120347   0.00000000
C  4 6   2.54192730  -1.68266883   0.00000000
C  5 6  -3.40872578   3.98815360   0.00000000
N  6 7   3.00326614   0.87379046   0.00000000
N  7 7   0.01131946  -2.25266692   0.00000000
O  8 8   4.19630694  -3.24379048   0.00000000
O  9 8  -4.16423828  -1.37127976   0.00000000
H  10 1   4.83051792   1.36224687   0.00000000
H  11 1  -0.41808301  -4.10076238   0.00000000
H  12 1  -2.66022416   5.89783523   0.00000000
H  13 1  -4.61404979   3.75711569  -1.64837030
H  14 1  -4.61404979   3.75711569   1.64837030
H  15 1   1.79410598   4.59638085   0.00000000
[GTO]
1
s 6
    3.047524902344e+03     1.834737136960e-03
    4.573695068359e+02     1.403732318431e-02
    1.039486846924e+02     6.884261965752e-02
    2.921015548706e+01     2.321844398975e-01
    9.286663055420e+00     4.679413437843e-01
    3.163927078247e+00     3.623119890690e-01
s 3
    7.868272304535e+00    -1.193324178457e-01
    1.881288528442e+00    -1.608541458845e-01
    5.442492365837e-01     1.143456459045e+00
p 3
    7.868272304535e+00     6.899906694889e-02
    1.881288528442e+00     3.164239525795e-01
    5.442492365837e-01     7.443082928658e-01
s 1
    1.687144786119e-01     1.000000000000e+00
p 1
    1.687144786119e-01     1.000000000000e+00
d 1
    8.000000119209e-01     1.000000000000e+00

2
s 6
    3.047524902344e+03     1.834737136960e-03
    4.573695068359e+02     1.403732318431e-02
    1.039486846924e+02     6.884261965752e-02
    2.921015548706e+01     2.321844398975e-01
    9.286663055420e+00     4.679413437843e-01
    3.163927078247e+00     3.623119890690e-01
s 3
    7.868272304535e+00    -1.193324178457e-01
    1.881288528442e+00    -1.608541458845e-01
    5.442492365837e-01     1.143456459045e+00
p 3
    7.868272304535e+00     6.899906694889e-02
    1.881288528442e+00     3.164239525795e-01
    5.442492365837e-01     7.443082928658e-01
s 1
    1.687144786119e-01     1.000000000000e+00
p 1
    1.687144786119e-01     1.000000000000e+00
d 1
    8.000000119209e-01     1.000000000000e+00

3
s 6
    3.047524902344e+03     1.834737136960e-03
    4.573695068359e+02     1.403732318431e-02
    1.039486846924e+02     6.884261965752e-02
    2.921015548706e+01     2.321844398975e-01
    9.286663055420e+00     4.679413437843e-01
    3.163927078247e+00     3.623119890690e-01
s 3
    7.868272304535e+00    -1.193324178457e-01
    1.881288528442e+00    -1.608541458845e-01
    5.442492365837e-01     1.143456459045e+00
p 3
    7.868272304535e+00     6.899906694889e-02
    1.881288528442e+00     3.164239525795e-01
    5.442492365837e-01     7.443082928658e-01
s 1
    1.687144786119e-01     1.000000000000e+00
p 1
    1.687144786119e-01     1.000000000000e+00
d 1
    8.000000119209e-01     1.000000000000e+00

4
s 6
    3.047524902344e+03     1.834737136960e-03
    4.573695068359e+02     1.403732318431e-02
    1.039486846924e+02     6.884261965752e-02
    2.921015548706e+01     2.321844398975e-01
    9.286663055420e+00     4.679413437843e-01
    3.163927078247e+00     3.623119890690e-01
s 3
    7.868272304535e+00    -1.193324178457e-01
    1.881288528442e+00    -1.608541458845e-01
    5.442492365837e-01     1.143456459045e+00
p 3
    7.868272304535e+00     6.899906694889e-02
    1.881288528442e+00     3.164239525795e-01
    5.442492365837e-01     7.443082928658e-01
s 1
    1.687144786119e-01     1.000000000000e+00
p 1
    1.687144786119e-01     1.000000000000e+00
d 1
    8.000000119209e-01     1.000000000000e+00

5
s 6
    3.047524902344e+03     1.834737136960e-03
    4.573695068359e+02     1.403732318431e-02
    1.039486846924e+02     6.884261965752e-02
    2.921015548706e+01     2.321844398975e-01
    9.286663055420e+00     4.679413437843e-01
    3.163927078247e+00     3.623119890690e-01
s 3
    7.868272304535e+00    -1.193324178457e-01
    1.881288528442e+00    -1.608541458845e-01
    5.442492365837e-01     1.143456459045e+00
p 3
    7.868272304535e+00     6.899906694889e-02
    1.881288528442e+00     3.164239525795e-01
    5.442492365837e-01     7.443082928658e-01
s 1
    1.687144786119e-01     1.000000000000e+00
p 1
    1.687144786119e-01     1.000000000000e+00
d 1
    8.000000119209e-01     1.000000000000e+00

6
s 6
    4.173511230469e+03     1.834772177972e-03
    6.274578857422e+02     1.399462670088e-02
    1.429020996094e+02     6.858655065298e-02
    4.023432922363e+01     2.322408705950e-01
    1.282021331787e+01     4.690699577332e-01
    4.390437126160e+00     3.604551851749e-01
s 3
    1.162636184692e+01    -1.149611845613e-01
    2.716279745102e+00    -1.691174805164e-01
    7.722184062004e-01     1.145851969719e+00
p 3
    1.162636184692e+01     6.757974624634e-02
    2.716279745102e+00     3.239072859287e-01
    7.722184062004e-01     7.408951520920e-01
s 1
    2.120314985514e-01     1.000000000000e+00
p 1
    2.120314985514e-01     1.000000000000e+00
d 1
    8.000000119209e-01     1.000000000000e+00

7
s 6
    4.173511230469e+03     1.834772177972e-03
    6.274578857422e+02     1.399462670088e-02
    1.429020996094e+02     6.858655065298e-02
    4.023432922363e+01     2.322408705950e-01
    1.282021331787e+01     4.690699577332e-01
    4.390437126160e+00     3.604551851749e-01
s 3
    1.162636184692e+01    -1.149611845613e-01
    2.716279745102e+00    -1.691174805164e-01
    7.722184062004e-01     1.145851969719e+00
p 3
    1.162636184692e+01     6.757974624634e-02
    2.716279745102e+00     3.239072859287e-01
    7.722184062004e-01     7.408951520920e-01
s 1
    2.120314985514e-01     1.000000000000e+00
p 1
    2.120314985514e-01     1.000000000000e+00
d 1
    8.000000119209e-01     1.000000000000e+00

8
s 6
    5.484671875000e+03     1.831074478105e-03
    8.252349243164e+02     1.395017188042e-02
    1.880469512939e+02     6.844507902861e-02
    5.296450042725e+01     2.327143400908e-01
    1.689756965637e+01     4.701929092407e-01
    5.799635410309e+00     3.585208654404e-01
s 3
    1.553961658478e+01    -1.107775494456e-01
    3.599933624268e+00    -1.480262577534e-01
    1.013761758804e+00     1.130766987801e+00
p 3
    1.553961658478e+01     7.087426632643e-02
    3.599933624268e+00     3.397528529167e-01
    1.013761758804e+00     7.271586060524e-01
s 1
    2.700058221817e-01     1.000000000000e+00
p 1
    2.700058221817e-01     1.000000000000e+00
d 1
    8.000000119209e-01     1.000000000000e+00

9
s 6
    5.484671875000e+03     1.831074478105e-03
    8.252349243164e+02     1.395017188042e-02
    1.880469512939e+02     6.844507902861e-02
    5.296450042725e+01     2.327143400908e-01
    1.689756965637e+01     4.701929092407e-01
    5.799635410309e+00     3.585208654404e-01
s 3
    1.553961658478e+01    -1.107775494456e-01
    3.599933624268e+00    -1.480262577534e-01
    1.013761758804e+00     1.130766987801e+00
p 3
    1.553961658478e+01     7.087426632643e-02
    3.599933624268e+00     3.397528529167e-01
    1.013761758804e+00     7.271586060524e-01
s 1
    2.700058221817e-01     1.000000000000e+00
p 1
    2.700058221817e-01     1.000000000000e+00
d 1
    8.000000119209e-01     1.000000000000e+00

10
s 3
    1.873113632202e+01     3.349460288882e-02
    2.825394392014e+00     2.347269505262e-01
    6.401216983795e-01     8.137573003769e-01
s 1
    1.612777560949e-01     1.000000000000e+00

11
s 3
    1.873113632202e+01     3.349460288882e-02
    2.825394392014e+00     2.347269505262e-01
    6.401216983795e-01     8.137573003769e-01
s 1
    1.612777560949e-01     1.000000000000e+00

12
s 3
    1.873113632202e+01     3.349460288882e-02
    2.825394392014e+00     2.347269505262e-01
    6.401216983795e-01     8.137573003769e-01
s 1
    1.612777560949e-01     1.000000000000e+00

13
s 3
    1.873113632202e+01     3.349460288882e-02
    2.825394392014e+00     2.347269505262e-01
    6.401216983795e-01     8.137573003769e-01
s 1
    1.612777560949e-01     1.000000000000e+00

14
s 3
    1.873113632202e+01     3.349460288882e-02
    2.825394392014e+00     2.347269505262e-01
    6.401216983795e-01     8.137573003769e-01
s 1
    1.612777560949e-01     1.000000000000e+00

15
s 3
    1.873113632202e+01     3.349460288882e-02
    2.825394392014e+00     2.347269505262e-01
    6.401216983795e-01     8.137573003769e-01
s 1
    1.612777560949e-01     1.000000000000e+00

[MO]
Ene=    -19.68413092
Spin= Alpha
Occup=      1.00000000
1      0.00003040
2      0.00010169
3      0.00006538
4     -0.00005241
5     -0.00000000
6      0.00012177
7     -0.00037091
8     -0.00030713
9      0.00000000
10      0.00007167
11      0.00007647
12      0.00005592
13     -0.00003288
14      0.00000000
15     -0.00000000
16      0.00000333
17      0.00000773
18      0.00001683
19     -0.00002770
20     -0.00000000
21      0.00047495
22      0.00006416
23     -0.00002895
24     -0.00000000
25     -0.00000046
26      0.00000245
27      0.00001710
28     -0.00003638
29     -0.00000000
30      0.00000000
31      0.00002462
32      0.00009974
33      0.00004746
34     -0.00007479
35     -0.00000000
36     -0.00015209
37      0.00023181
38      0.00026080
39      0.00000000
40      0.00007490
41      0.00001405
42      0.00005142
43     -0.00003415
44      0.00000000
45     -0.00000000
46     -0.00002066
47      0.00040138
48     -0.00007396
49      0.00007439
50      0.00000000
51     -0.00224196
52     -0.00234087
53      0.00222290
54     -0.00000000
55     -0.00057167
56     -0.00050783
57     -0.00007020
58      0.00058609
59     -0.00000000
60     -0.00000000
61      0.00000251
62      0.00001766
63     -0.00000526
64      0.00000518
65     -0.00000000
66     -0.00009224
67     -0.00003741
68      0.00002874
69      0.00000000
70     -0.00000448
71     -0.00000252
72      0.00000309
73      0.00000937
74      0.00000000
75     -0.00000000
76      0.00000192
77      0.00003598
78     -0.00003752
79      0.00003054
80      0.00000000
81     -0.00047364
82      0.00052271
83     -0.00008320
84      0.00000000
85      0.00001764
86     -0.00005106
87     -0.00001389
88      0.00011303
89     -0.00000000
90      0.00000000
91      0.00000455
92      0.00004730
93     -0.00002833
94      0.00004003
95      0.00000000
96     -0.00053791
97      0.00016094
98     -0.00052650
99      0.00000000
100     -0.00005466
101      0.00003359
102     -0.00000769
103      0.00011750
104     -0.00000000
105      0.00000000
106      0.99349995
107      0.02367717
108     -0.00104834
109      0.00100359
110      0.00000000
111      0.01133433
112     -0.00094738
113      0.00088818
114      0.00000000
115     -0.00623580
116     -0.00626752
117     -0.00660345
118     -0.00033617
119      0.00000000
120     -0.00000000
121      0.00000844
122      0.00008767
123      0.00000221
124     -0.00000142
125      0.00000000
126     -0.00055902
127     -0.00015202
128     -0.00003196
129      0.00000000
130      0.00003348
131      0.00005594
132      0.00005732
133     -0.00001242
134     -0.00000000
135      0.00000000
136     -0.00005550
137     -0.00011334
138     -0.00005352
139     -0.00011574
140      0.00000123
141      0.00001291
142      0.00000542
143     -0.00000353
144      0.00000542
145     -0.00000353
146     -0.00001616
147     -0.00014998
Ene=    -19.66850771
Spin= Alpha
Occup=      1.00000000
1      0.00003168
2     -0.00034339
3     -0.00008203
4     -0.00001685
5     -0.00000000
6      0.00158478
7     -0.00363460
8     -0.00139489
9      0.00000000
10      0.00087845
11      0.00015788
12      0.00009573
13      0.00034965
14      0.00000000
15      0.00000000
16     -0.00000168
17     -0.00004866
18     -0.00006610
19      0.00001535
20      0.00000000
21      0.00108193
22      0.00157787
23     -0.00105866
24     -0.00000000
25      0.00006598
26     -0.00001345
27      0.00000809
28      0.00007950
29     -0.00000000
30     -0.00000000
31     -0.00001093
32     -0.00005108
33      0.00006343
34      0.00002679
35     -0.00000000
36     -0.00098014
37      0.00023527
38      0.00028104
39      0.00000000
40     -0.00005488
41      0.00001250
42     -0.00002788
43      0.00001486
44     -0.00000000
45     -0.00000000
46     -0.00003141
47     -0.00010406
48      0.00008111
49      0.00001174
50      0.00000000
51     -0.00030447
52     -0.00011099
53      0.00028443
54      0.00000000
55     -0.00010300
56     -0.00005917
57     -0.00005601
58     -0.00001987
59      0.00000000
60      0.00000000
61     -0.00001230
62     -0.00006025
63      0.00005740
64     -0.00000118
65     -0.00000000
66      0.00106687
67      0.00025089
68     -0.00039420
69      0.00000000
70      0.00000924
71     -0.00002755
72     -0.00000658
73     -0.00003507
74     -0.00000000
75      0.00000000
76     -0.00000912
77     -0.00003781
78      0.00001649
79      0.00000986
80     -0.00000000
81      0.00017513
82     -0.00011957
83      0.00002108
84     -0.00000000
85     -0.00002515
86      0.00001528
87     -0.00003257
88     -0.00002101
89      0.00000000
90      0.00000000
91     -0.00000854
92     -0.00007332
93     -0.00005412
94     -0.00001177
95      0.00000000
96      0.00080442
97      0.00037413
98      0.00058524
99     -0.00000000
100      0.00011841
101     -0.00006937
102     -0.00000248
103      0.00000691
104     -0.00000000
105     -0.00000000
106     -0.00002826
107     -0.00008015
108      0.00000132
109      0.00000142
110      0.00000000
111      0.00048442
112     -0.00012279
113      0.00009047
114     -0.00000000
115     -0.00003730
116     -0.00003624
117     -0.00005553
118     -0.00002152
119      0.00000000
120      0.00000000
121     -0.99348436
122     -0.02361225
123     -0.00131447
124     -0.00046150
125     -0.00000000
126     -0.01172179
127     -0.00126619
128     -0.00046742
129     -0.00000000
130      0.00609913
131      0.00651270
132      0.00665073
133     -0.00020546
134     -0.00000000
135     -0.00000000
136      0.00001555
137      0.00001689
138      0.00005796
139      0.00015370
140     -0.00001343
141      0.00005662
142     -0.00005426
143     -0.00003031
144     -0.00005426
145     -0.00003031
146     -0.00000173
147     -0.00002929
Ene=    -14.88825135
Spin= Alpha
Occup=      1.00000000
1      0.00000122
2     -0.00000445
3      0.00001973
4     -0.00000362
5      0.00000000
6      0.00078760
7      0.00039789
8      0.00022441
9     -0.00000000
10      0.00000686
11      0.00001757
12      0.00000279
13      0.00000546
14      0.00000000
15      0.00000000
16      0.00001500
17      0.00011039
18     -0.00002486
19     -0.00002261
20      0.00000000
21     -0.00120394
22     -0.00073492
23      0.00070674
24      0.00000000
25     -0.00006253
26      0.00000140
27      0.00001541
28      0.00002182
29      0.00000000
30     -0.00000000
31      0.00002112
32      0.00016620
33      0.00020306
34     -0.00020348
35     -0.00000000
36      0.00116505
37     -0.00031158
38     -0.00097326
39     -0.00000000
40      0.00001549
41      0.00002849
42     -0.00005429
43     -0.00001330
44      0.00000000
45     -0.00000000
46      0.00002629
47      0.00019454
48      0.00005817
49      0.00030693
50      0.00000000
51      0.00049846
52     -0.00011470
53      0.00113837
54     -0.00000000
55      0.00002359
56      0.00002909
57     -0.00004028
58     -0.00001284
59      0.00000000
60     -0.00000000
61     -0.00000152
62     -0.00000064
63     -0.00001564
64      0.00000647
65      0.00000000
66     -0.00035932
67     -0.00007750
68      0.00009102
69     -0.00000000
70     -0.00000334
71      0.00000337
72     -0.00001061
73     -0.00000743
74      0.00000000
75     -0.00000000
76      0.99357771
77      0.03122465
78     -0.00006670
79     -0.00005003
80     -0.00000000
81      0.00008221
82      0.00074560
83      0.00045614
84     -0.00000000
85     -0.00635694
86     -0.00641341
87     -0.00634511
88      0.00002833
89     -0.00000000
90     -0.00000000
91     -0.00019269
92      0.00000497
93     -0.00005053
94     -0.00000990
95     -0.00000000
96     -0.00025861
97      0.00020218
98     -0.00045272
99      0.00000000
100     -0.00000675
101     -0.00001077
102     -0.00002126
103     -0.00003751
104     -0.00000000
105      0.00000000
106     -0.00002054
107     -0.00009790
108      0.00002561
109     -0.00002201
110     -0.00000000
111      0.00065924
112     -0.00023723
113     -0.00010530
114      0.00000000
115     -0.00001655
116     -0.00015358
117     -0.00007474
118      0.00001938
119     -0.00000000
120     -0.00000000
121     -0.00000481
122     -0.00001918
123     -0.00000460
124      0.00000443
125      0.00000000
126      0.00014501
127      0.00001484
128     -0.00002898
129      0.00000000
130     -0.00001570
131     -0.00001453
132     -0.00001440
133     -0.00000866
134     -0.00000000
135      0.00000000
136      0.00026007
137     -0.00034112
138     -0.00005283
139     -0.00001876
140     -0.00000083
141      0.00000902
142      0.00000679
143      0.00000691
144      0.00000679
145      0.00000691
146      0.00001210
147      0.00031432
Ene=    -14.85053344
Spin= Alpha
Occup=      1.00000000
1      0.00001116
2      0.00011920
3      0.00022453
4     -0.00018823
5     -0.00000000
6      0.00063185
7      0.00141734
8     -0.00013789
9      0.00000000
10      0.00005168
11      0.00003052
12     -0.00005839
13     -0.00003041
14     -0.00000000
15      0.00000000
16      0.00000771
17      0.00007583
18      0.00002898
19      0.00002790
20      0.00000000
21     -0.00078008
22     -0.00095708
23      0.00039899
24     -0.00000000
25     -0.00000828
26     -0.00005718
27      0.00000025
28      0.00002904
29     -0.00000000
30     -0.00000000
31      0.00000491
32      0.00001791
33     -0.00000654
34     -0.00002037
35     -0.00000000
36      0.00096507
37     -0.00022052
38     -0.00026804
39      0.00000000
40      0.00002220
41     -0.00000507
42      0.00000878
43      0.00000466
44      0.00000000
45      0.00000000
46      0.00002625
47      0.00021675
48     -0.00029415
49     -0.00006585
50      0.00000000
51      0.00045710
52     -0.00113795
53      0.00007045
54      0.00000000
55     -0.00001174
56      0.00001933
57     -0.00004071
58     -0.00002337
59      0.00000000
60     -0.00000000
61     -0.00000594
62     -0.00002089
63     -0.00000730
64      0.00003339
65     -0.00000000
66     -0.00033822
67     -0.00011159
68      0.00002620
69      0.00000000
70      0.00000092
71     -0.00001351
72     -0.00001635
73     -0.00000418
74     -0.00000000
75     -0.00000000
76      0.00019762
77      0.00000748
78      0.00001002
79      0.00005212
80      0.00000000
81     -0.00018143
82      0.00042648
83     -0.00017918
84     -0.00000000
85     -0.00001094
86     -0.00001585
87     -0.00002973
88     -0.00004094
89      0.00000000
90      0.00000000
91      0.99355805
92      0.03137697
93      0.00016554
94      0.00008588
95     -0.00000000
96     -0.00026880
97     -0.00029983
98     -0.00082955
99     -0.00000000
100     -0.00644608
101     -0.00639445
102     -0.00634216
103      0.00004192
104     -0.00000000
105     -0.00000000
106     -0.00002099
107     -0.00010011
108      0.00002293
109     -0.00002275
110     -0.00000000
111      0.00068198
112      0.00008630
113      0.00025056
114      0.00000000
115     -0.00016053
116     -0.00000952
117     -0.00007691
118      0.00000795
119      0.00000000
120     -0.00000000
121     -0.00002887
122     -0.00013518
123     -0.00003236
124     -0.00000722
125      0.00000000
126      0.00096091
127      0.00008520
128      0.00023970
129     -0.00000000
130     -0.00015195
131     -0.00006562
132     -0.00009116
133      0.00004624
134     -0.00000000
135     -0.00000000
136     -0.00005139
137     -0.00001791
138      0.00028024
139     -0.00033910
140      0.00001400
141      0.00003919
142     -0.00000636
143      0.00000205
144     -0.00000636
145      0.00000205
146     -0.00000661
147      0.00003426
Ene=    -10.75492739
Spin= Alpha
Occup=      1.00000000
1     -0.00032538
2     -0.00067988
3     -0.00012941
4      0.00004816
5      0.00000000
6      0.00240988
7      0.00459683
8      0.00318551
9      0.00000000
10     -0.00009325
11     -0.00007441
12     -0.00025206
13     -0.00003549
14     -0.00000000
15     -0.00000000
16      0.00004251
17      0.00037117
18     -0.00004170
19      0.00002605
20     -0.00000000
21     -0.00739180
22     -0.00355517
23      0.00311802
24      0.00000000
25     -0.00009772
26     -0.00005974
27      0.00006758
28      0.00005600
29     -0.00000000
30      0.00000000
31     -0.00015626
32     -0.00058841
33     -0.00003039
34      0.00018056
35      0.00000000
36      0.00476755
37     -0.00252822
38     -0.00406622
39     -0.00000000
40      0.00008006
41      0.00009214
42     -0.00022516
43     -0.00002822
44     -0.00000000
45     -0.00000000
46      0.99408073
47      0.03968968
48     -0.00020793
49      0.00030666
50     -0.00000000
51     -0.00278884
52      0.00360260
53     -0.00351960
54      0.00000000
55     -0.00531354
56     -0.00535165
57     -0.00672356
58     -0.00045977
59      0.00000000
60      0.00000000
61     -0.00001030
62     -0.00003261
63     -0.00003463
64      0.00003774
65     -0.00000000
66     -0.00131998
67     -0.00032659
68      0.00029865
69      0.00000000
70      0.00000015
71     -0.00000372
72     -0.00001955
73     -0.00002968
74      0.00000000
75      0.00000000
76     -0.00016892
77      0.00023396
78      0.00003460
79      0.00004098
80      0.00000000
81     -0.00018823
82      0.00059793
83      0.00098476
84     -0.00000000
85     -0.00012146
86     -0.00068529
87      0.00011484
88     -0.00005666
89     -0.00000000
90      0.00000000
91     -0.00018701
92      0.00014362
93     -0.00001932
94     -0.00004236
95      0.00000000
96      0.00026161
97     -0.00136100
98     -0.00042429
99     -0.00000000
100     -0.00063088
101     -0.00014452
102      0.00006600
103     -0.00011961
104      0.00000000
105      0.00000000
106     -0.00009230
107      0.00106949
108     -0.00013557
109      0.00012403
110      0.00000000
111     -0.00679017
112      0.00211832
113     -0.00199741
114      0.00000000
115      0.00039690
116      0.00040111
117      0.00072661
118      0.00024838
119      0.00000000
120     -0.00000000
121     -0.00013617
122     -0.00060327
123     -0.00000233
124      0.00000717
125      0.00000000
126      0.00437065
127      0.00091782
128      0.00009674
129      0.00000000
130     -0.00032240
131     -0.00041349
132     -0.00033292
133      0.00000922
134      0.00000000
135      0.00000000
136     -0.00007304
137     -0.00010906
138     -0.00010273
139      0.00003671
140      0.00003559
141     -0.00006310
142     -0.00000831
143      0.00006071
144     -0.00000831
145      0.00006071
146      0.00023339
147      0.00166510
Ene=    -10.70263420
Spin= Alpha
Occup=      1.00000000
1     -0.99412026
2     -0.04044845
3     -0.00014256
4      0.00071473
5     -0.00000000
6      0.00868636
7      0.00641239
8      0.00709536
9      0.00000000
10      0.00506295
11      0.00585057
12      0.00656769
13     -0.00017369
14     -0.00000000
15     -0.00000000
16     -0.00406611
17      0.00012994
18      0.00005561
19     -0.00026565
20     -0.00000000
21     -0.00685865
22     -0.00107193
23      0.00583539
24     -0.00000000
25      0.00031377
26      0.00045502
27      0.00021369
28      0.00006923
29      0.00000000
30     -0.00000000
31      0.00008471
32      0.00025277
33     -0.00011807
34     -0.00005094
35      0.00000000
36      0.00083190
37      0.00091056
38     -0.00077226
39      0.00000000
40     -0.00007377
41     -0.00006153
42      0.00010451
43     -0.00002758
44     -0.00000000
45     -0.00000000
46     -0.00006826
47      0.00055707
48     -0.00019947
49     -0.00003724
50      0.00000000
51      0.00075544
52      0.00075504
53     -0.00422821
54      0.00000000
55      0.00011369
56      0.00011976
57      0.00024104
58     -0.00005767
59      0.00000000
60     -0.00000000
61      0.00006969
62      0.00026066
63     -0.00006828
64     -0.00003721
65      0.00000000
66     -0.00218176
67     -0.00089163
68      0.00048375
69     -0.00000000
70     -0.00008059
71      0.00002516
72      0.00008187
73      0.00004001
74     -0.00000000
75      0.00000000
76     -0.00003290
77     -0.00014351
78     -0.00003136
79      0.00002445
80      0.00000000
81      0.00189311
82     -0.00031593
83     -0.00152778
84     -0.00000000
85     -0.00004357
86     -0.00004033
87     -0.00004957
88      0.00006455
89      0.00000000
90     -0.00000000
91      0.00019876
92     -0.00007517
93      0.00012280
94      0.00006224
95     -0.00000000
96     -0.00167370
97     -0.00325106
98      0.00020951
99     -0.00000000
100      0.00060843
101      0.00038712
102     -0.00001960
103     -0.00040713
104      0.00000000
105      0.00000000
106      0.00012644
107      0.00055644
108     -0.00000777
109     -0.00001338
110      0.00000000
111     -0.00387278
112      0.00095489
113     -0.00034263
114     -0.00000000
115      0.00028663
116      0.00036881
117      0.00032557
118      0.00007352
119     -0.00000000
120      0.00000000
121      0.00004006
122     -0.00126599
123     -0.00016301
124     -0.00000008
125      0.00000000
126      0.00816096
127      0.00318995
128      0.00029317
129     -0.00000000
130     -0.00020492
131     -0.00077100
132     -0.00086740
133      0.00006064
134      0.00000000
135      0.00000000
136      0.00001572
137      0.00010201
138     -0.00002180
139     -0.00008233
140      0.00005180
141     -0.00001117
142      0.00007911
143     -0.00000888
144      0.00007911
145     -0.00000888
146      0.00002581
147     -0.00009276
Ene=    -10.63845064
Spin= Alpha
Occup=      1.00000000
1     -0.00443690
2     -0.00045560
3     -0.00001549
4     -0.00019589
5     -0.00000000
6      0.00641600
7      0.00191967
8      0.00250598
9     -0.00000000
10     -0.00019992
11     -0.00045709
12     -0.00013482
13     -0.00004987
14      0.00000000
15     -0.00000000
16      0.99219731
17      0.04152305
18      0.00062577
19      0.00004806
20      0.00000000
21     -0.01874603
22     -0.00260721
23      0.00176250
24      0.00000000
25     -0.00598164
26     -0.00635723
27     -0.00663848
28      0.00008397
29      0.00000000
30     -0.00000000
31      0.05796575
32      0.00195618
33      0.00043342
34      0.00004839
35      0.00000000
36      0.00740875
37     -0.00244106
38     -0.00219426
39     -0.00000000
40     -0.00088868
41     -0.00062522
42     -0.00058836
43     -0.00007728
44     -0.00000000
45     -0.00000000
46      0.00000197
47     -0.00008016
48     -0.00002638
49      0.00003025
50     -0.00000000
51      0.00116115
52     -0.00152112
53      0.00127884
54      0.00000000
55      0.00001207
56      0.00002156
57     -0.00003399
58     -0.00001518
59      0.00000000
60      0.00000000
61      0.00701295
62      0.00027888
63     -0.00022842
64      0.00011065
65     -0.00000000
66      0.00181177
67      0.00134295
68     -0.00038695
69      0.00000000
70     -0.00032977
71     -0.00036029
72     -0.00008251
73      0.00020918
74     -0.00000000
75      0.00000000
76      0.00005579
77      0.00018740
78     -0.00004258
79     -0.00000693
80     -0.00000000
81     -0.00275858
82      0.00137032
83      0.00014016
84     -0.00000000
85      0.00020356
86      0.00012219
87      0.00010801
88      0.00000171
89     -0.00000000
90      0.00000000
91      0.00006680
92      0.00016290
93      0.00001771
94      0.00003611
95     -0.00000000
96     -0.00267954
97     -0.00028918
98     -0.00117765
99      0.00000000
100      0.00015226
101      0.00020537
102      0.00009292
103     -0.00001301
104      0.00000000
105     -0.00000000
106     -0.00005173
107     -0.00023316
108      0.00001591
109     -0.00001401
110     -0.00000000
111      0.00155958
112     -0.00021561
113      0.00022511
114     -0.00000000
115     -0.00014490
116     -0.00014030
117     -0.00014152
118     -0.00000093
119     -0.00000000
120      0.00000000
121      0.00000206
122     -0.00005016
123      0.00002016
124      0.00002061
125      0.00000000
126      0.00020941
127      0.00000548
128     -0.00027462
129      0.00000000
130      0.00005329
131      0.00004646
132     -0.00004932
133     -0.00001433
134      0.00000000
135     -0.00000000
136     -0.00010905
137     -0.00005115
138     -0.00009451
139     -0.00000458
140     -0.00008689
141     -0.00032403
142     -0.00012278
143      0.00047256
144     -0.00012278
145      0.00047256
146     -0.00004535
147      0.00046650
Ene=    -10.62976016
Spin= Alpha
Occup=      1.00000000
1      0.00028174
2     -0.00026823
3      0.00002678
4     -0.00000713
5      0.00000000
6      0.00111652
7      0.00133049
8      0.00123551
9     -0.00000000
10      0.00009040
11      0.00013633
12     -0.00006032
13      0.00009447
14     -0.00000000
15     -0.00000000
16     -0.05851192
17     -0.00271503
18     -0.00038789
19     -0.00014926
20      0.00000000
21      0.00474539
22      0.00211960
23      0.00216815
24      0.00000000
25     -0.00004165
26      0.00002428
27      0.00027305
28     -0.00005891
29      0.00000000
30     -0.00000000
31      0.99210136
32      0.04141733
33      0.00014202
34     -0.00107646
35      0.00000000
36     -0.01097242
37      0.00305201
38     -0.00001494
39     -0.00000000
40     -0.00603596
41     -0.00638756
42     -0.00694719
43     -0.00017806
44      0.00000000
45     -0.00000000
46     -0.00000295
47     -0.00040990
48     -0.00003195
49     -0.00004721
50     -0.00000000
51      0.00075394
52     -0.00424637
53      0.00124649
54      0.00000000
55      0.00000786
56      0.00008861
57     -0.00014339
58     -0.00001124
59      0.00000000
60      0.00000000
61     -0.00075694
62     -0.00015188
63     -0.00006339
64      0.00001994
65      0.00000000
66     -0.00062700
67     -0.00030428
68     -0.00017221
69     -0.00000000
70      0.00005352
71      0.00006782
72     -0.00005746