[Molden Format]
[Atoms] AU
C  1 6   0.00000000   0.00000000   0.00000000
H  2 1   0.00000000   2.02200695   0.28345892
H  3 1   1.75177612  -1.01100348   0.28345892
H  4 1  -1.75177612  -1.01100348   0.28345892
Br 5 35   0.00000000   0.00000000  -3.66417896
[GTO]
1
s 6
    3.047524902344e+03     1.834737136960e-03
    4.573695068359e+02     1.403732318431e-02
    1.039486846924e+02     6.884261965752e-02
    2.921015548706e+01     2.321844398975e-01
    9.286663055420e+00     4.679413437843e-01
    3.163927078247e+00     3.623119890690e-01
s 3
    7.868272304535e+00    -1.193324178457e-01
    1.881288528442e+00    -1.608541458845e-01
    5.442492365837e-01     1.143456459045e+00
p 3
    7.868272304535e+00     6.899906694889e-02
    1.881288528442e+00     3.164239525795e-01
    5.442492365837e-01     7.443082928658e-01
s 1
    1.687144786119e-01     1.000000000000e+00
p 1
    1.687144786119e-01     1.000000000000e+00
d 1
    8.000000119209e-01     1.000000000000e+00

2
s 3
    1.873113632202e+01     3.349460288882e-02
    2.825394392014e+00     2.347269505262e-01
    6.401216983795e-01     8.137573003769e-01
s 1
    1.612777560949e-01     1.000000000000e+00

3
s 3
    1.873113632202e+01     3.349460288882e-02
    2.825394392014e+00     2.347269505262e-01
    6.401216983795e-01     8.137573003769e-01
s 1
    1.612777560949e-01     1.000000000000e+00

4
s 3
    1.873113632202e+01     3.349460288882e-02
    2.825394392014e+00     2.347269505262e-01
    6.401216983795e-01     8.137573003769e-01
s 1
    1.612777560949e-01     1.000000000000e+00

5
s 6
    1.137182031250e+05     1.717695966363e-03
    1.707443945312e+04     1.316743995994e-02
    3.889575927734e+03     6.504552811384e-02
    1.097095947266e+03     2.269504964352e-01
    3.520624084473e+02     4.768356978893e-01
    1.207002029419e+02     3.583677113056e-01
s 6
    2.471137939453e+03     2.243686933070e-03
    5.893837890625e+02     2.994853071868e-02
    1.918737945557e+02     1.256009042263e-01
    7.295339202881e+01    -9.832786163315e-04
    3.005838966370e+01    -6.013141274452e-01
    1.252927017212e+01    -4.913983047009e-01
p 6
    2.471137939453e+03     3.790182061493e-03
    5.893837890625e+02     2.995979040861e-02
    1.918737945557e+02     1.318227946758e-01
    7.295339202881e+01     3.432708084583e-01
    3.005838966370e+01     4.642345011234e-01
    1.252927017212e+01     2.079387009144e-01
s 6
    1.096410980225e+02    -5.975683219731e-03
    3.858948135376e+01     5.542121827602e-02
    1.637817955017e+01     2.681199908257e-01
    7.221836090088e+00    -1.543606072664e-01
    3.263696908951e+00    -7.206305861473e-01
    1.465499043465e+00    -3.316437005997e-01
p 6
    1.096410980225e+02    -6.907483097166e-03
    3.858948135376e+01    -3.041432052851e-02
    1.637817955017e+01     4.602725058794e-02
    7.221836090088e+00     3.650689125061e-01
    3.263696908951e+00     4.949232041836e-01
    1.465499043465e+00     2.090394049883e-01
s 3
    2.103651046753e+00     3.029029071331e-01
    7.547050118446e-01    -2.152658998966e-01
    3.005140125751e-01    -9.633941054344e-01
p 3
    2.103651046753e+00    -2.826713956892e-02
    7.547050118446e-01     3.503065109253e-01
    3.005140125751e-01     7.182446122169e-01
s 1
    1.090710014105e-01     1.000000000000e+00
p 1
    1.090710014105e-01     1.000000000000e+00
d 3
    6.225513839722e+01     7.704228907824e-02
    1.731283950806e+01     3.707383871078e-01
    5.607914924622e+00     7.097628116608e-01
d 1
    1.746485948563e+00     1.000000000000e+00
d 1
    4.365999996662e-01     1.000000000000e+00

[MO]
Ene=   -485.64628125
Spin= Alpha
Occup=      1.00000000
1     -0.00000240
2     -0.00002222
3      0.00000000
4      0.00000000
5     -0.00001162
6      0.00005423
7      0.00000000
8      0.00000001
9     -0.00001286
10     -0.00000172
11     -0.00000172
12      0.00001971
13     -0.00000000
14      0.00000000
15      0.00000000
16     -0.00000351
17     -0.00001541
18     -0.00000351
19     -0.00001540
20     -0.00000351
21     -0.00001540
22     -0.99506842
23      0.01944185
24     -0.00000000
25      0.00000003
26     -0.00000228
27      0.02490889
28      0.00000000
29     -0.00000001
30      0.00000420
31     -0.00082331
32     -0.00000000
33      0.00000000
34     -0.00001420
35      0.00010752
36      0.00000000
37     -0.00000000
38     -0.00000358
39      0.01236546
40      0.01236449
41      0.01236316
42     -0.00000000
43     -0.00000000
44      0.00000000
45      0.00190169
46      0.00190214
47      0.00190922
48     -0.00000000
49      0.00000000
50     -0.00000000
51     -0.00036047
52     -0.00036043
53     -0.00038060
54     -0.00000000
55     -0.00000000
56     -0.00000000
Ene=    -63.57920138
Spin= Alpha
Occup=      1.00000000
1     -0.00000002
2     -0.00000128
3      0.00000000
4     -0.00000015
5      0.00000186
6      0.00000457
7     -0.00000000
8      0.00000083
9      0.00000992
10     -0.00000111
11     -0.00000136
12     -0.00000038
13      0.00000000
14      0.00000000
15      0.00000001
16      0.00000147
17     -0.00001041
18      0.00000138
19     -0.00000904
20      0.00000138
21     -0.00000904
22     -0.31239004
23     -1.03058787
24     -0.00000000
25     -0.00001114
26      0.00034344
27      0.00993258
28      0.00000000
29     -0.00000062
30      0.00002245
31      0.00027162
32     -0.00000000
33      0.00000008
34     -0.00000853
35      0.00004322
36      0.00000000
37     -0.00000010
38      0.00001874
39      0.01348195
40      0.01358574
41      0.01351671
42      0.00000000
43     -0.00000000
44     -0.00000046
45      0.00079540
46      0.00076719
47      0.00078476
48     -0.00000000
49      0.00000000
50      0.00000014
51      0.00004832
52      0.00006444
53      0.00005643
54      0.00000000
55      0.00000000
56     -0.00000012
Ene=    -57.22607456
Spin= Alpha
Occup=      1.00000000
1     -0.00000030
2     -0.00000220
3      0.00000000
4      0.00000573
5     -0.00000038
6      0.00000662
7     -0.00000000
8     -0.00010629
9     -0.00000204
10      0.00001736
11     -0.00001858
12      0.00000130
13      0.00000000
14     -0.00000000
15      0.00002854
16      0.00000389
17      0.00019065
18     -0.00000235
19     -0.00009778
20     -0.00000235
21     -0.00009778
22      0.00000418
23      0.00001415
24      0.00000000
25     -0.99602083
26      0.00528471
27      0.00000115
28      0.00000000
29     -0.01066652
30      0.00005692
31     -0.00000423
32     -0.00000000
33      0.00178968
34     -0.00001083
35     -0.00000045
36      0.00000000
37     -0.00079000
38      0.00000344
39      0.00000070
40      0.00000077
41      0.00000013
42      0.00000000
43     -0.00000000
44     -0.00002714
45     -0.00000308
46      0.00000132
47     -0.00000018
48      0.00000000
49      0.00000000
50      0.00000850
51      0.00000450
52     -0.00000748
53     -0.00000329
54      0.00000000
55      0.00000000
56     -0.00000186
Ene=    -57.22320519
Spin= Alpha
Occup=      1.00000000
1      0.00005619
2      0.00041159
3     -0.00000000
4      0.00000003
5      0.00007264
6     -0.00126401
7     -0.00000000
8     -0.00000079
9      0.00037588
10      0.00011281
11      0.00011261
12     -0.00023813
13      0.00000000
14      0.00000000
15      0.00000015
16      0.00005089
17      0.00031739
18      0.00005082
19      0.00031561
20      0.00005082
21      0.00031561
22     -0.00010874
23     -0.00036397
24     -0.00000000
25     -0.00528489
26     -0.99602005
27      0.00013417
28     -0.00000000
29     -0.00005636
30     -0.01068379
31      0.00080830
32      0.00000000
33      0.00000943
34      0.00202687
35      0.00007841
36     -0.00000000
37     -0.00000414
38     -0.00064629
39      0.00006101
40      0.00006199
41      0.00003881
42      0.00000000
43     -0.00000000
44      0.00000074
45      0.00018938
46      0.00018913
47      0.00009900
48      0.00000000
49      0.00000000
50     -0.00000024
51      0.00029056
52      0.00029075
53      0.00060997
54      0.00000000
55     -0.00000000
56      0.00000010
Ene=    -57.22207540
Spin= Alpha
Occup=      1.00000000
1      0.00000000
2      0.00000000
3     -0.00000587
4      0.00000000
5      0.00000000
6     -0.00000000
7      0.00010497
8     -0.00000000
9      0.00000000
10      0.00000000
11      0.00000000
12     -0.00000000
13     -0.00002048
14     -0.00002819
15     -0.00000000
16      0.00000000
17      0.00000000
18     -0.00000369
19     -0.00016459
20      0.00000369
21      0.00016459
22     -0.00000000
23     -0.00000000
24      0.99605929
25      0.00000000
26     -0.00000000
27      0.00000000
28      0.01060071
29      0.00000000
30     -0.00000000
31      0.00000000
32     -0.00176719
33     -0.00000000
34      0.00000000
35      0.00000000
36      0.00078063
37      0.00000000
38     -0.00000000
39      0.00000000
40      0.00000000
41      0.00000000
42     -0.00000181
43      0.00002764
44     -0.00000000
45      0.00000000
46      0.00000000
47      0.00000000
48      0.00000309
49     -0.00000853
50     -0.00000000
51      0.00000000
52      0.00000000
53      0.00000000
54     -0.00000699
55      0.00000211
56      0.00000000
Ene=    -10.56004230
Spin= Alpha
Occup=      1.00000000
1     -0.99388914
2     -0.04195513
3     -0.00000000
4     -0.00006452
5      0.00002392
6      0.01388624
7     -0.00000000
8      0.00004538
9     -0.00116535
10      0.00649858
11      0.00649651
12      0.00685216
13      0.00000000
14     -0.00000000
15     -0.00000288
16      0.00013036
17     -0.00241494
18      0.00010255
19     -0.00236859
20      0.00010255
21     -0.00236859
22     -0.00000139
23     -0.00000023
24      0.00000000
25     -0.00000027
26     -0.00003128
27     -0.00007107
28     -0.00000000
29      0.00000092
30      0.00011354
31     -0.00019674
32     -0.00000000
33     -0.00000249
34     -0.00072889
35     -0.00166691
36      0.00000000
37     -0.00000417
38     -0.00124110
39     -0.00003094
40     -0.00003041
41     -0.00003676
42      0.00000000
43     -0.00000000
44     -0.00000003
45     -0.00008261
46     -0.00008189
47     -0.00008252
48     -0.00000000
49     -0.00000000
50      0.00000017
51     -0.00011874
52     -0.00012898
53     -0.00045401
54      0.00000000
55     -0.00000000
56     -0.00000140
Ene=     -9.18967696
Spin= Alpha
Occup=      1.00000000
1     -0.00001545
2      0.00017121
3      0.00000000
4      0.00000103
5      0.00004427
6     -0.00059480
7     -0.00000000
8     -0.00000813
9      0.00002169
10      0.00003217
11      0.00003662
12     -0.00008413
13      0.00000000
14     -0.00000000
15     -0.00000031
16      0.00002233
17      0.00026138
18      0.00002130
19      0.00024750
20      0.00002130
21      0.00024750
22      0.12433012
23      0.47971746
24     -0.00000000
25      0.00003227
26     -0.00118154
27     -1.08092480
28      0.00000000
29     -0.00008387
30      0.00304772
31      0.00177407
32      0.00000000
33     -0.00000293
34      0.00039414
35     -0.00148832
36      0.00000000
37      0.00000206
38     -0.00022679
39      0.00235169
40      0.00403451
41      0.00280754
42      0.00000000
43     -0.00000000
44     -0.00000755
45      0.00344938
46      0.00539499
47      0.00407040
48      0.00000000
49      0.00000000
50     -0.00000932
51      0.00275211
52      0.00251616
53      0.00284369
54     -0.00000000
55      0.00000000
56      0.00000208
Ene=     -6.93794524
Spin= Alpha
Occup=      1.00000000
1      0.00000063
2      0.00000597
3     -0.00000000
4      0.00001018
5      0.00000127
6     -0.00002194
7      0.00000000
8      0.00044221
9      0.00000790
10     -0.00005673
11      0.00006043
12     -0.00000244
13     -0.00000000
14     -0.00000000
15     -0.00013481
16     -0.00001438
17     -0.00073467
18      0.00000873
19      0.00037530
20      0.00000873
21      0.00037530
22     -0.00001273
23     -0.00004964
24      0.00000000
25      0.40897177
26     -0.00253736
27      0.00011175
28     -0.00000000
29     -1.07211625
30      0.00665162
31      0.00000494
32     -0.00000000
33     -0.01432252
34      0.00009182
35      0.00000150
36      0.00000000
37      0.00358972
38     -0.00001945
39     -0.00001538
40      0.00002016
41     -0.00000845
42     -0.00000000
43     -0.00000000
44     -0.00077758
45      0.00000487
46      0.00001161
47      0.00000012
48     -0.00000000
49     -0.00000000
50     -0.00061000
51     -0.00001727
52      0.00002309
53      0.00000800
54     -0.00000000
55     -0.00000000
56     -0.00006752
Ene=     -6.92842342
Spin= Alpha
Occup=      1.00000000
1     -0.00006231
2     -0.00080914
3      0.00000000
4     -0.00000029
5     -0.00025413
6      0.00304817
7     -0.00000000
8      0.00000623
9     -0.00088483
10     -0.00017883
11     -0.00018054
12      0.00038407
13      0.00000000
14      0.00000000
15     -0.00000067
16     -0.00017119
17     -0.00086266
18     -0.00017037
19     -0.00084961
20     -0.00017037
21     -0.00084961
22      0.00039207
23      0.00154299
24     -0.00000000
25      0.00253794
26      0.40899976
27     -0.00351543
28      0.00000000
29     -0.00665406
30     -1.07233308
31     -0.00131992
32      0.00000000
33     -0.00008418
34     -0.01388382
35     -0.00011388
36     -0.00000000
37      0.00001982
38      0.00287299
39      0.00048871
40      0.00049024
41     -0.00095335
42     -0.00000000
43      0.00000000
44      0.00001696
45     -0.00007117
46     -0.00003216
47     -0.00114604
48     -0.00000000
49      0.00000000
50      0.00001321
51     -0.00050413
52     -0.00050125
53     -0.00146241
54      0.00000000
55      0.00000000
56     -0.00000190
Ene=     -6.92330723
Spin= Alpha
Occup=      1.00000000
1      0.00000000
2      0.00000000
3      0.00001107
4     -0.00000000
5     -0.00000000
6      0.00000000
7      0.00034974
8      0.00000000
9     -0.00000000
10     -0.00000000
11     -0.00000000
12     -0.00000000
13     -0.00005229
14     -0.00011624
15      0.00000000
16     -0.00000000
17     -0.00000000
18     -0.00001201
19     -0.00050469
20      0.00001201
21      0.00050469
22     -0.00000000
23     -0.00000000
24      0.40908863
25     -0.00000000
26      0.00000000
27     -0.00000000
28     -1.07268887
29      0.00000000
30     -0.00000000
31     -0.00000000
32     -0.01278274
33      0.00000000
34     -0.00000000
35     -0.00000000
36      0.00295196
37     -0.00000000
38     -0.00000000
39     -0.00000000
40     -0.00000000
41     -0.00000000
42      0.00002013
43     -0.00078182
44      0.00000000
45     -0.00000000
46     -0.00000000
47     -0.00000000
48      0.00002782
49     -0.00064170
50      0.00000000
51     -0.00000000
52     -0.00000000
53     -0.00000000
54     -0.00001691
55     -0.00006718
56     -0.00000000
Ene=     -2.89125884
Spin= Alpha
Occup=      1.00000000
1      0.00027235
2     -0.00142750
3      0.00000000
4     -0.00015678
5      0.00007051
6      0.00668944
7     -0.00000000
8      0.00104733
9     -0.00426451
10     -0.00005652
11     -0.00015555
12      0.00011418
13     -0.00000000
14     -0.00000000
15     -0.00000199
16     -0.00042156
17     -0.00072879
18     -0.00058300
19      0.00104807
20     -0.00058300
21      0.00104807
22     -0.00027132
23     -0.00115690
24      0.00000000
25     -0.00002200
26     -0.00064078
27      0.00240542
28      0.00000000
29      0.00006514
30      0.00189825
31     -0.00347134
32      0.00000000
33     -0.00008222
34     -0.00191209
35     -0.00658398
36     -0.00000000
37      0.00002528
38     -0.00486095
39     -0.23649162
40      0.73227219
41     -0.49596931
42      0.00000000
43     -0.00000000
44     -0.00471821
45     -0.12310910
46      0.38151354
47     -0.25730856
48      0.00000000
49     -0.00000000
50     -0.00244923
51     -0.01328960
52      0.04308678
53     -0.03137513
54      0.00000000
55     -0.00000000
56     -0.00032910
Ene=     -2.88898229
Spin= Alpha
Occup=      1.00000000
1      0.00000185
2     -0.00001795
3      0.00000000
4      0.00055602
5      0.00000547
6      0.00007864
7     -0.00000000
8     -0.00364526
9     -0.00005606
10      0.00024030
11     -0.00024988
12     -0.00000208
13      0.00000000
14      0.00000000
15      0.00075222
16      0.00081557
17      0.00114786
18     -0.00041525
19     -0.00056247
20     -0.00041525
21     -0.00056247
22      0.00000170
23      0.00000536
24      0.00000000
25      0.00055996
26     -0.00002009
27     -0.00002302
28     -0.00000000
29     -0.00158532
30      0.00005721
31      0.00001115
32      0.00000000
33      0.00068856
34     -0.00002894
35     -0.00007598
36      0.00000000
37      0.00078583
38     -0.00004813
39      0.00106332
40      0.00408503
41     -0.00515127
42      0.00000000
43      0.00000000
44      0.74752317
45      0.00054646
46      0.00212491
47     -0.00267734
48      0.00000000
49      0.00000000
50      0.38900545
51      0.00010453
52      0.00023581
53     -0.00030603
54      0.00000000
55      0.00000000
56      0.04430094
Ene=     -2.88461130
Spin= Alpha
Occup=      1.00000000
1      0.00000000
2     -0.00000000
3      0.00019766
4     -0.00000000
5      0.00000000
6     -0.00000000
7     -0.00128766
8     -0.00000000
9     -0.00000000
10     -0.00000000
11      0.00000000
12      0.00000000
13     -0.00008820
14     -0.00001134
15     -0.00000000
16     -0.00000000
17      0.00000000
18     -0.00013276
19      0.00130703
20      0.00013276
21     -0.00130703
22     -0.00000000
23     -0.00000000
24     -0.00001807
25     -0.00000000
26      0.00000000
27     -0.00000000
28      0.00004912
29      0.00000000
30     -0.00000000
31     -0.00000000
32      0.00003342
33     -0.00000000
34      0.00000000
35     -0.00000000
36     -0.00002869
37     -0.00000000
38     -0.00000000
39      0.00000000
40     -0.00000000
41      0.00000000
42      0.74782156
43     -0.00531077
44     -0.00000000
45      0.00000000
46     -0.00000000
47      0.00000000
48      0.38883980
49     -0.00277133
50     -0.00000000
51      0.00000000
52     -0.00000000
53      0.00000000
54      0.04355133
55     -0.00025136
56     -0.00000000
Ene=     -2.87608601
Spin= Alpha
Occup=      1.00000000
1     -0.00039745
2      0.00164067
3     -0.00000000
4     -0.00012723
5     -0.00047429
6     -0.00664261
7      0.00000000
8      0.00083807
9      0.00407386
10      0.00015228
11      0.00006718
12     -0.00007273
13     -0.00000000
14     -0.00000000
15      0.00000679
16      0.00069291
17     -0.00149152
18      0.00055602
19     -0.00002743
20      0.00055602
21     -0.00002743
22     -0.00021158
23     -0.00073291
24     -0.00000000
25     -0.00000164
26      0.00067038
27      0.00242271
28      0.00000000
29      0.00000683
30     -0.00196646
31     -0.00027969
32     -0.00000000
33     -0.00004471
34      0.00175180
35      0.00624289
36     -0.00000000
37      0.00002228
38      0.00476245
39     -0.70992680
40      0.14990373
41      0.56004153
42      0.00000000
43     -0.00000000
44      0.00269929
45     -0.36759893
46      0.07844714
47      0.29018049
48      0.00000000
49     -0.00000000
50      0.00140463
51     -0.04283703
52      0.00723235
53      0.03447905
54      0.00000000
55     -0.00000000
56      0.00012578
Ene=     -2.87602476
Spin= Alpha
Occup=      1.00000000
1      0.00000000
2     -0.00000000
3     -0.00043506
4      0.00000000
5      0.00000000
6      0.00000000
7      0.00357450
8     -0.00000000
9     -0.00000000
10     -0.00000000
11     -0.00000000
12      0.00000000
13     -0.00028415
14     -0.00072090
15      0.00000000
16     -0.00000000
17      0.00000000
18     -0.00062597
19     -0.00093549
20      0.00062597
21      0.00093549
22      0.00000000
23      0.00000000
24     -0.00061401
25      0.00000000
26     -0.00000000
27      0.00000000
28      0.00176093
29     -0.00000000
30      0.00000000
31      0.00000000
32     -0.00105128
33      0.00000000
34     -0.00000000
35     -0.00000000
36     -0.00078902
37      0.00000000
38     -0.00000000
39      0.00000000
40     -0.00000000
41     -0.00000000
42     -0.00531329
43     -0.74831300
44      0.00000000
45      0.00000000
46     -0.00000000
47     -0.00000000
48     -0.00275045
49     -0.38802670
50      0.00000000
51      0.00000000
52     -0.00000000
53     -0.00000000
54     -0.00034037
55     -0.04431008
56      0.00000000
Ene=     -0.92929342
Spin= Alpha
Occup=      1.00000000
1     -0.09612489
2      0.17450988
3     -0.00000000
4      0.00133583
5     -0.06719326
6      0.16023483
7      0.00000000
8     -0.00092448
9     -0.02174254
10      0.00148622
11      0.00240779
12      0.00483039
13      0.00000000
14      0.00000000
15     -0.00002867
16      0.05836237
17      0.00866295
18      0.05622327
19      0.00563326
20      0.05622327
21      0.00563326
22     -0.03409595
23     -0.12533130
24      0.00000000
25      0.00005668
26      0.01497482
27      0.37605017
28      0.00000000
29     -0.00018979
30     -0.04931685
31     -0.76150183
32      0.00000000
33      0.00042437
34      0.09928805
35      0.16055266
36     -0.00000000
37      0.00019741
38      0.00649026
39      0.00421398
40     -0.00010996
41     -0.01387899
42     -0.00000000
43      0.00000000
44     -0.00003904
45      0.00241225
46      0.00178166
47     -0.00346599
48     -0.00000000
49      0.00000000
50     -0.00006117
51     -0.02133134
52     -0.01363089
53      0.00620769
54      0.00000000
55     -0.00000000
56      0.00025706
Ene=     -0.74656490
Spin= Alpha
Occup=      1.00000000
1     -0.16793885
2      0.31934747
3     -0.00000000
4      0.00363544
5      0.04645479
6      0.31897670
7     -0.00000000
8     -0.00097492
9      0.01445058
10      0.01143584
11      0.01249621
12     -0.01329372
13      0.00000000
14     -0.00000000
15      0.00017043
16      0.13494801
17      0.05438420
18      0.13034647
19      0.04877053
20      0.13034647
21      0.04877053
22      0.02087162
23      0.07723022
24     -0.00000000
25      0.00021236
26      0.02276920
27     -0.22959682
28      0.00000000
29     -0.00070765
30     -0.07523146
31      0.49435324
32     -0.00000000
33      0.00160081
34      0.15092364
35     -0.14668493
36     -0.00000000
37      0.00037510
38      0.02792039
39      0.00757191
40      0.01008281
41     -0.01107866
42      0.00000000
43      0.00000000
44     -0.00009204
45      0.00181205
46      0.00195105
47     -0.00446326
48      0.00000000
49      0.00000000
50     -0.00004655
51      0.00055948
52     -0.00370224
53      0.03067445
54     -0.00000000
55     -0.00000000
56      0.00025059
Ene=     -0.50189484
Spin= Alpha
Occup=      1.00000000
1     -0.00000000
2      0.00000000
3      0.40627890
4     -0.00000000
5     -0.00000000
6      0.00000000
7      0.20047765
8     -0.00000000
9     -0.00000000
10      0.00000000
11     -0.00000000
12      0.00000000
13     -0.02423730
14     -0.00168939
15      0.00000000
16     -0.00000000
17     -0.00000000
18      0.21867088
19      0.15780393
20     -0.21867088
21     -0.15780393
22      0.00000000
23      0.00000000
24      0.03638540
25     -0.00000000
26      0.00000000
27     -0.00000000
28     -0.12119008
29      0.00000000
30     -0.00000000
31      0.00000000
32      0.26376498
33     -0.00000000
34      0.00000000
35     -0.00000000
36      0.08746035
37     -0.00000000
38      0.00000000
39     -0.00000000
40      0.00000000
41     -0.00000000
42      0.00121423
43     -0.01441909
44      0.00000000
45     -0.00000000
46      0.00000000
47      0.00000000
48      0.00061452
49     -0.00469871
50      0.00000000
51      0.00000000
52     -0.00000000
53      0.00000000
54     -0.00346359
55      0.02995738
56     -0.00000000
Ene=     -0.50181980
Spin= Alpha
Occup=      1.00000000
1      0.00204615
2     -0.00348271
3      0.00000000
4      0.42123713
5      0.00245466
6     -0.00904111
7      0.00000000
8      0.21188473
9      0.00031004
10     -0.02271992
11      0.02284554
12     -0.00028337
13     -0.00000000
14     -0.00000000
15     -0.00128606
16      0.26781858
17      0.19975612
18     -0.13279519
19     -0.09677374
20     -0.13279519
21     -0.09677374
22     -0.00008154
23     -0.00027910
24      0.00000000
25      0.02303625
26     -0.00097771
27      0.00097957
28     -0.00000000
29     -0.07641933
30      0.00325407
31     -0.00152864
32      0.00000000
33      0.16036079
34     -0.00712620
35      0.00232836
36      0.00000000
37      0.04875904
38     -0.00127515
39      0.00092301
40     -0.00132436
41      0.00041084
42      0.00000000
43     -0.00000000
44     -0.01538306
45      0.00053686
46     -0.00059359
47      0.00012197
48      0.00000000
49     -0.00000000
50     -0.00517799
51     -0.00284508
52      0.00355318
53     -0.00082347
54     -0.00000000
55      0.00000000
56      0.03275029
Ene=     -0.42629014
Spin= Alpha
Occup=      1.00000000
1     -0.03067634
2      0.06426885
3      0.00000000
4     -0.00325448
5      0.29833280
6      0.06224209
7      0.00000000
8     -0.00056151
9      0.15756457
10      0.01085864
11      0.01018075
12     -0.02311364
13     -0.00000000
14     -0.00000000
15      0.00038286
16      0.06908810
17      0.07622554
18      0.07116098
19      0.08071072
20      0.07116098
21      0.08071072
22     -0.00330398
23     -0.01174049
24      0.00000000
25     -0.00049323
26     -0.09012483
27      0.03804528
28     -0.00000000
29      0.00164562
30      0.30084686
31     -0.07448933
32      0.00000000
33     -0.00366841
34     -0.67058588
35      0.08163748
36      0.00000000
37     -0.00123365
38     -0.22710329
39     -0.00724809
40     -0.00760803
41      0.01433715
42     -0.00000000
43      0.00000000
44      0.00016355
45     -0.00136419
46     -0.00144627
47      0.00349241
48     -0.00000000
49      0.00000000
50      0.00010652
51      0.00902894
52      0.00973714
53     -0.03362262
54      0.00000000
55      0.00000000
56     -0.00059134
Ene=     -0.35860739
Spin= Alpha
Occup=      1.00000000
1      0.00000000
2     -0.00000000
3     -0.17824323
4      0.00000000
5     -0.00000000
6     -0.00000000
7     -0.08837763
8      0.00000000
9     -0.00000000
10     -0.00000000
11      0.00000000
12     -0.00000000
13      0.01246281
14     -0.01264044
15      0.00000000
16      0.00000000
17      0.00000000
18     -0.10808021
19     -0.11640093
20      0.10808021
21      0.11640093
22      0.00000000
23      0.00000000
24      0.10040139
25     -0.00000000
26      0.00000000
27      0.00000000
28     -0.33595423
29      0.00000000
30     -0.00000000
31      0.00000000
32      0.76125583
33     -0.00000000
34      0.00000000
35      0.00000000
36      0.33599211
37     -0.00000000
38      0.00000000
39      0.00000000
40      0.00000000
41      0.00000000
42     -0.00078308
43      0.00293993
44     -0.00000000
45      0.00000000
46      0.00000000
47      0.00000000
48     -0.00030962
49      0.00020312
50      0.00000000
51      0.00000000
52      0.00000000
53      0.00000000
54      0.00202738
55      0.00147659
56     -0.00000000
Ene=     -0.29349784
Spin= Alpha
Occup=      1.00000000
1     -0.00034124
2      0.00061761
3     -0.00000000
4     -0.12460078
5      0.00088925
6      0.00191091
7     -0.00000000
8     -0.06792041
9     -0.00023584
10      0.00812624
11     -0.00820663
12      0.00007298
13      0.00000000
14     -0.00000000
15     -0.01031609
16     -0.09046656
17     -0.09933295
18      0.04430505
19      0.05051732
20      0.04430505
21      0.05051732
22     -0.00001901
23     -0.00011468
24      0.00000000
25      0.10728932
26     -0.00024793
27      0.00011341
28     -0.00000000
29     -0.35894680
30      0.00082422
31     -0.00061586
32      0.00000000
33      0.82152771
34     -0.00167153
35     -0.00196869
36      0.00000000
37      0.30751286
38     -0.00234287
39     -0.00059667
40      0.00074484
41     -0.00017079
42     -0.00000000
43      0.00000000
44      0.00055079
45     -0.00012734
46      0.00038302
47      0.00002923
48     -0.00000000
49     -0.00000000
50     -0.00011847
51      0.00197269
52     -0.00191785
53      0.00087575
54      0.00000000
55      0.00000000
56      0.00765407
Ene=     -0.00672614
Spin= Alpha
Occup=      1.00000000
1     -0.08063133
2      0.13651932
3     -0.00000000
4      0.00283624
5     -0.49968145
6      0.77063836
7     -0.00000000
8      0.01243048
9     -0.70397520
10     -0.00229702
11     -0.00142893
12     -0.00612194
13      0.00000000
14      0.00000000
15     -0.00060935
16      0.00327396
17     -0.08894799
18      0.00310808
19     -0.06576944
20      0.00310808
21     -0.06576944
22      0.00981086
23      0.03735768
24      0.00000000
25     -0.00009987
26     -0.05369109
27     -0.10886648
28     -0.00000000
29      0.00034162
30      0.18189258
31      0.24015265
32      0.00000000
33     -0.00100873
34     -0.45599368
35     -0.41493036
36      0.00000000
37     -0.00039557
38     -0.70694599
39      0.03087541
40      0.03898982
41     -0.06797897
42      0.00000000
43      0.00000000
44     -0.00017238
45     -0.00174780
46     -0.00008903
47     -0.01823959
48      0.00000000
49      0.00000000
50     -0.00001491
51     -0.06264235
52     -0.09479592
53      0.10914801
54     -0.00000000
55     -0.00000000
56      0.00024969
Ene=      0.13724467
Spin= Alpha
Occup=      0.00000000
1     -0.12390963
2      0.09138424
3     -0.00000000
4      0.01521491
5      0.15603780
6      2.13469124
7     -0.00000000
8      0.07309918
9      0.18338776
10     -0.01967511
11     -0.01962744
12      0.00091501
13     -0.00000000
14     -0.00000000
15      0.00011761
16     -0.05360455
17     -0.95931862
18     -0.04961170
19     -0.82825466
20     -0.04961170
21     -0.82825466
22     -0.00853040
23     -0.05851035
24     -0.00000000
25      0.00027739
26      0.00972595
27      0.03612618
28      0.00000000
29     -0.00095113
30     -0.03319254
31     -0.32274719
32     -0.00000000
33      0.00312049
34      0.10105231
35     -1.01301498
36      0.00000000
37     -0.00893632
38     -0.24326276
39      0.00548640
40      0.00518401
41     -0.02297968
42     -0.00000000