[Molden Format]
[Atoms] AU
O  1 8   0.00000000   0.00000000  -0.07759509
H  2 1  -1.00759125   1.00759125  -1.16117854
H  3 1   1.00759125  -1.00759125  -1.16117854
[GTO]
1
s 6
    5.484671875000e+03     1.831074478105e-03
    8.252349243164e+02     1.395017188042e-02
    1.880469512939e+02     6.844507902861e-02
    5.296450042725e+01     2.327143400908e-01
    1.689756965637e+01     4.701929092407e-01
    5.799635410309e+00     3.585208654404e-01
s 3
    1.553961658478e+01    -1.107775494456e-01
    3.599933624268e+00    -1.480262577534e-01
    1.013761758804e+00     1.130766987801e+00
p 3
    1.553961658478e+01     7.087426632643e-02
    3.599933624268e+00     3.397528529167e-01
    1.013761758804e+00     7.271586060524e-01
s 1
    2.700058221817e-01     1.000000000000e+00
p 1
    2.700058221817e-01     1.000000000000e+00

2
s 3
    1.873113632202e+01     3.349460288882e-02
    2.825394392014e+00     2.347269505262e-01
    6.401216983795e-01     8.137573003769e-01
s 1
    1.612777560949e-01     1.000000000000e+00

3
s 3
    1.873113632202e+01     3.349460288882e-02
    2.825394392014e+00     2.347269505262e-01
    6.401216983795e-01     8.137573003769e-01
s 1
    1.612777560949e-01     1.000000000000e+00

[MO]
Ene=    -18.94407508
Spin= Alpha
Occup=      1.00000000
1     -0.99469768
2     -0.03000159
3      0.00000000
4     -0.00000000
5      0.00247789
6      0.01419381
7      0.00000000
8     -0.00000000
9     -0.00206691
10     -0.00013890
11     -0.00298946
12     -0.00013890
13     -0.00298946
Ene=     -1.09648346
Spin= Alpha
Occup=      1.00000000
1      0.21969119
2     -0.50902118
3     -0.00000000
4     -0.00000000
5      0.17340990
6     -0.48175268
7      0.00000000
8     -0.00000000
9      0.08586666
10     -0.12779028
11      0.04502591
12     -0.12779028
13      0.04502591
Ene=     -0.60888859
Spin= Alpha
Occup=      1.00000000
1      0.00000000
2     -0.00000000
3     -0.40838771
4      0.40838771
5     -0.00000000
6     -0.00000000
7     -0.18061407
8      0.18061407
9     -0.00000000
10      0.23677352
11      0.09179788
12     -0.23677352
13     -0.09179788
Ene=     -0.46996441
Spin= Alpha
Occup=      1.00000000
1      0.00000000
2     -0.00000000
3     -0.50167846
4     -0.50167846
5     -0.00000000
6     -0.00000000
7     -0.30662930
8     -0.30662930
9     -0.00000000
10      0.00000000
11     -0.00000000
12      0.00000000
13      0.00000000
Ene=     -0.46269586
Spin= Alpha
Occup=      1.00000000
1     -0.08009252
2      0.18890558
3     -0.00000000
4      0.00000000
5      0.61501965
6      0.26839765
7     -0.00000000
8      0.00000000
9      0.37221559
10     -0.12325667
11     -0.02966908
12     -0.12325667
13     -0.02966908
Ene=     -0.03771492
Spin= Alpha
Occup=      1.00000000
1      0.08595803
2     -0.19300250
3     -0.00000000
4      0.00000000
5      0.24927550
6     -1.03151465
7     -0.00000000
8      0.00000000
9      0.37094744
10      0.14675049
11      0.90892359
12      0.14675049
13      0.90892359
Ene=      0.04735336
Spin= Alpha
Occup=      0.00000000
1      0.00000000
2     -0.00000000
3      0.32815646
4     -0.32815646
5      0.00000000
6     -0.00000000
7      0.44526149
8     -0.44526149
9      0.00000000
10      0.16038551
11      1.20189815
12     -0.16038551
13     -1.20189815
Ene=      0.66785535
Spin= Alpha
Occup=      0.00000000
1      0.00000000
2      0.00000000
3      0.64524558
4      0.64524558
5     -0.00000000
6     -0.00000000
7     -0.75762898
8     -0.75762898
9      0.00000000
10     -0.00000000
11      0.00000000
12      0.00000000
13     -0.00000000
Ene=      0.71539182
Spin= Alpha
Occup=      0.00000000
1     -0.00571364
2      0.01318067
3      0.00000000
4     -0.00000000
5      0.92224782
6      0.27558339
7      0.00000000
8     -0.00000000
9     -0.96762442
10      0.34366236
11     -0.48983986
12      0.34366236
13     -0.48983986
Ene=      0.70701323
Spin= Alpha
Occup=      0.00000000
1      0.00000000
2     -0.00000000
3      0.13041769
4     -0.13041769
5     -0.00000000
6     -0.00000000
7      0.35159460
8     -0.35159460
9      0.00000000
10      0.98008490
11     -0.71435400
12     -0.98008490
13      0.71435400
Ene=      0.81547797
Spin= Alpha
Occup=      0.00000000
1      0.08224998
2     -0.59807602
3      0.00000000
4     -0.00000000
5     -0.16782729
6      0.39172513
7     -0.00000000
8      0.00000000
9      0.73571541
10      0.89763567
11     -0.48129916
12      0.89763567
13     -0.48129916
Ene=      0.89473786
Spin= Alpha
Occup=      0.00000000
1     -0.00000000
2      0.00000000
3      0.66024621
4     -0.66024621
5      0.00000000
6     -0.00000000
7     -1.23954526
8      1.23954526
9     -0.00000000
10     -0.03071269
11     -1.04447822
12      0.03071269
13      1.04447822
Ene=      1.24136570
Spin= Alpha
Occup=      0.00000000
1     -0.04389724
2      1.62616006
3     -0.00000000
4      0.00000000
5     -0.15815268
6     -2.82562490
7      0.00000000
8     -0.00000000
9      0.90392692
10      0.53673799
11      0.62925182
12      0.53673799
13      0.62925182
Ene=    -18.91424115
Spin= Beta
Occup=      1.00000000
1     -0.99503130
2     -0.02845738
3      0.00000000
4     -0.00000000
5      0.00216871
6      0.01414537
7      0.00000000
8     -0.00000000
9     -0.00202633
10     -0.00025413
11     -0.00325697
12     -0.00025413
13     -0.00325697
Ene=     -1.02318342
Spin= Beta
Occup=      1.00000000
1      0.21035418
2     -0.47464401
3     -0.00000000
4      0.00000000
5      0.17230372
6     -0.44585793
7      0.00000000
8     -0.00000000
9      0.08161202
10     -0.15048244
11      0.01270843
12     -0.15048244
13      0.01270843
Ene=     -0.57400094
Spin= Beta
Occup=      1.00000000
1      0.00000000
2     -0.00000000
3     -0.40611084
4      0.40611084
5     -0.00000000
6     -0.00000000
7     -0.18994285
8      0.18994285
9     -0.00000000
10      0.24066656
11      0.07185690
12     -0.24066656
13     -0.07185690
Ene=     -0.42583471
Spin= Beta
Occup=      1.00000000
1     -0.08866432
2      0.21154299
3     -0.00000000
4      0.00000000
5      0.59144038
6      0.30353857
7     -0.00000000
8      0.00000000
9      0.37362498
10     -0.12288344
11     -0.05097249
12     -0.12288344
13     -0.05097249
Ene=     -0.32762205
Spin= Beta
Occup=      0.00000000
1      0.00000000
2     -0.00000000
3      0.47356455
4      0.47356455
5     -0.00000000
6      0.00000000
7      0.33881693
8      0.33881693
9     -0.00000000
10      0.00000000
11      0.00000000
12     -0.00000000
13     -0.00000000
Ene=      0.03314409
Spin= Beta
Occup=      0.00000000
1     -0.09232666
2      0.22419739
3     -0.00000000
4      0.00000000
5     -0.28192518
6      1.00985353
7     -0.00000000
8     -0.00000000
9     -0.35404969
10     -0.10780710
11     -0.90933692
12     -0.10780710
13     -0.90933692
Ene=      0.11169618
Spin= Beta
Occup=      0.00000000
1      0.00000000
2     -0.00000000
3     -0.29791984
4      0.29791984
5     -0.00000000
6      0.00000000
7     -0.46691268
8      0.46691268
9      0.00000000
10     -0.12087630
11     -1.26449319
12      0.12087630
13      1.26449319
Ene=      0.76697803
Spin= Beta
Occup=      0.00000000
1      0.00000000
2     -0.00000000
3      0.66615295
4      0.66615295
5     -0.00000000
6     -0.00000000
7     -0.74379183
8     -0.74379183
9      0.00000000
10     -0.00000000
11      0.00000000
12     -0.00000000
13      0.00000000
Ene=      0.75451273
Spin= Beta
Occup=      0.00000000
1     -0.01623525
2      0.06870186
3      0.00000000
4      0.00000000
5      0.94565206
6      0.26905473
7     -0.00000000
8     -0.00000000
9     -1.07021698
10      0.20640317
11     -0.43342108
12      0.20640317
13     -0.43342108
Ene=      0.73741727
Spin= Beta
Occup=      0.00000000
1     -0.00000000
2      0.00000000
3     -0.04603862
4      0.04603862
5      0.00000000
6      0.00000000
7     -0.54743189
8      0.54743189
9     -0.00000000
10     -0.97833384
11      0.50718251
12      0.97833384
13     -0.50718251
Ene=      0.85669019
Spin= Beta
Occup=      0.00000000
1      0.08576014
2     -0.60436973
3      0.00000000
4     -0.00000000
5     -0.03223979
6      0.39802723
7     -0.00000000
8      0.00000000
9      0.60476083
10      0.93655522
11     -0.52362226
12      0.93655522
13     -0.52362226
Ene=      0.93335763
Spin= Beta
Occup=      0.00000000
1      0.00000000
2     -0.00000000
3     -0.68673082
4      0.68673082
5     -0.00000000
6      0.00000000
7      1.15637496
8     -1.15637496
9      0.00000000
10     -0.11673181
11      1.09219131
12      0.11673181
13     -1.09219131
Ene=      1.30403014
Spin= Beta
Occup=      0.00000000
1      0.04331093
2     -1.62607157
3      0.00000000
4     -0.00000000
5      0.14110228
6      2.83551625
7     -0.00000000
8      0.00000000
9     -0.89189146
10     -0.54396129
11     -0.63632570
12     -0.54396129
13     -0.63632570
