[Molden Format]
[Atoms] AU
O  1 8   0.00000000   0.00000000  -0.07759509
H  2 1  -1.00759125   1.00759125  -1.16117854
H  3 1   1.00759125  -1.00759125  -1.16117854
[GTO]
1
s 6
    5.484671875000e+03     1.831074478105e-03
    8.252349243164e+02     1.395017188042e-02
    1.880469512939e+02     6.844507902861e-02
    5.296450042725e+01     2.327143400908e-01
    1.689756965637e+01     4.701929092407e-01
    5.799635410309e+00     3.585208654404e-01
s 3
    1.553961658478e+01    -1.107775494456e-01
    3.599933624268e+00    -1.480262577534e-01
    1.013761758804e+00     1.130766987801e+00
p 3
    1.553961658478e+01     7.087426632643e-02
    3.599933624268e+00     3.397528529167e-01
    1.013761758804e+00     7.271586060524e-01
s 1
    2.700058221817e-01     1.000000000000e+00
p 1
    2.700058221817e-01     1.000000000000e+00

2
s 3
    1.873113632202e+01     3.349460288882e-02
    2.825394392014e+00     2.347269505262e-01
    6.401216983795e-01     8.137573003769e-01
s 1
    1.612777560949e-01     1.000000000000e+00

3
s 3
    1.873113632202e+01     3.349460288882e-02
    2.825394392014e+00     2.347269505262e-01
    6.401216983795e-01     8.137573003769e-01
s 1
    1.612777560949e-01     1.000000000000e+00

[MO]
Ene=    -18.94338910
Spin= Alpha
Occup=      1.00000000
1     -0.99490070
2     -0.02914712
3      0.00000000
4      0.00000000
5      0.00220087
6      0.01457587
7     -0.00000000
8     -0.00000000
9     -0.00220745
10     -0.00024805
11     -0.00348000
12     -0.00024805
13     -0.00348000
Ene=     -1.09604582
Spin= Alpha
Occup=      1.00000000
1      0.21306260
2     -0.48751601
3      0.00000001
4      0.00000001
5      0.16525645
6     -0.43928659
7      0.00000000
8      0.00000000
9      0.07364907
10     -0.14225000
11      0.00687818
12     -0.14225000
13      0.00687818
Ene=     -0.60895319
Spin= Alpha
Occup=      1.00000000
1     -0.00000000
2      0.00000000
3      0.40725919
4     -0.40725919
5      0.00000000
6      0.00000000
7      0.18531743
8     -0.18531743
9      0.00000000
10     -0.23873695
11     -0.08173239
12      0.23873695
13      0.08173239
Ene=     -0.46348405
Spin= Alpha
Occup=      1.00000000
1     -0.08519960
2      0.20213399
3     -0.00000148
4     -0.00000148
5      0.60000277
6      0.29927119
7     -0.00000089
8     -0.00000089
9      0.36785785
10     -0.12550519
11     -0.05288544
12     -0.12550519
13     -0.05288544
Ene=     -0.46944797
Spin= Alpha
Occup=      1.00000000
1      0.00000025
2     -0.00000060
3     -0.50135898
4     -0.50135898
5     -0.00000175
6     -0.00000089
7     -0.30700432
8     -0.30700432
9     -0.00000109
10      0.00000036
11      0.00000016
12      0.00000036
13      0.00000016
Ene=     -0.03595544
Spin= Alpha
Occup=      1.00000000
1      0.09355703
2     -0.21235598
3      0.00000000
4      0.00000000
5      0.27456176
6     -1.04610873
7     -0.00000000
8     -0.00000000
9      0.38588872
10      0.13709716
11      0.90883085
12      0.13709716
13      0.90883085
Ene=      0.04739000
Spin= Alpha
Occup=      0.00000000
1      0.00000000
2     -0.00000000
3     -0.32059926
4      0.32059926
5      0.00000000
6     -0.00000000
7     -0.44346338
8      0.44346338
9      0.00000000
10     -0.14191536
11     -1.22135301
12      0.14191536
13      1.22135301
Ene=      0.66812025
Spin= Alpha
Occup=      0.00000000
1     -0.00000000
2      0.00000001
3      0.64549385
4      0.64549385
5      0.00000001
6      0.00000001
7     -0.75747709
8     -0.75747709
9      0.00000000
10     -0.00000000
11     -0.00000000
12     -0.00000000
13     -0.00000000
Ene=      0.71701832
Spin= Alpha
Occup=      0.00000000
1     -0.01138072
2      0.04569287
3      0.00000000
4      0.00000000
5      0.93755686
6      0.26623251
7      0.00000000
8      0.00000000
9     -1.02551860
10      0.26880089
11     -0.45642510
12      0.26880089
13     -0.45642510
Ene=      0.70572420
Spin= Alpha
Occup=      0.00000000
1     -0.00000000
2     -0.00000000
3     -0.12683632
4      0.12683632
5      0.00000000
6      0.00000000
7     -0.38169351
8      0.38169351
9     -0.00000000
10     -0.98283154
11      0.67285775
12      0.98283154
13     -0.67285775
Ene=      0.81344745
Spin= Alpha
Occup=      0.00000000
1      0.08295672
2     -0.59807368
3     -0.00000000
4     -0.00000000
5     -0.09646204
6      0.40721404
7     -0.00000000
8     -0.00000000
9      0.66008482
10      0.92063530
11     -0.51729728
12      0.92063530
13     -0.51729728
Ene=      0.89519420
Spin= Alpha
Occup=      0.00000000
1     -0.00000000
2      0.00000000
3      0.66533423
4     -0.66533423
5      0.00000000
6     -0.00000000
7     -1.23056012
8      1.23056012
9      0.00000000
10     -0.01420378
11     -1.05028638
12      0.01420378
13      1.05028638
Ene=      1.24103781
Spin= Alpha
Occup=      0.00000000
1      0.04438082
2     -1.62817338
3     -0.00000000
4     -0.00000000
5      0.15219751
6      2.82278281
7     -0.00000000
8     -0.00000000
9     -0.89505471
10     -0.53888217
11     -0.62598584
12     -0.53888217
13     -0.62598584
Ene=    -18.94338910
Spin= Beta
Occup=      1.00000000
1     -0.99490070
2     -0.02914712
3      0.00000000
4      0.00000000
5      0.00220087
6      0.01457587
7     -0.00000000
8     -0.00000000
9     -0.00220745
10     -0.00024805
11     -0.00348000
12     -0.00024805
13     -0.00348000
Ene=     -1.09604582
Spin= Beta
Occup=      1.00000000
1      0.21306260
2     -0.48751601
3      0.00000001
4      0.00000001
5      0.16525645
6     -0.43928659
7      0.00000000
8      0.00000000
9      0.07364907
10     -0.14225000
11      0.00687818
12     -0.14225000
13      0.00687818
Ene=     -0.60895319
Spin= Beta
Occup=      1.00000000
1     -0.00000000
2      0.00000000
3      0.40725919
4     -0.40725919
5      0.00000000
6      0.00000000
7      0.18531743
8     -0.18531743
9      0.00000000
10     -0.23873695
11     -0.08173239
12      0.23873695
13      0.08173239
Ene=     -0.46348405
Spin= Beta
Occup=      1.00000000
1     -0.08519960
2      0.20213399
3     -0.00000148
4     -0.00000148
5      0.60000277
6      0.29927119
7     -0.00000089
8     -0.00000089
9      0.36785785
10     -0.12550519
11     -0.05288544
12     -0.12550519
13     -0.05288544
Ene=     -0.46944797
Spin= Beta
Occup=      0.00000000
1      0.00000025
2     -0.00000060
3     -0.50135898
4     -0.50135898
5     -0.00000175
6     -0.00000089
7     -0.30700432
8     -0.30700432
9     -0.00000109
10      0.00000036
11      0.00000016
12      0.00000036
13      0.00000016
Ene=     -0.03595544
Spin= Beta
Occup=      0.00000000
1      0.09355703
2     -0.21235598
3      0.00000000
4      0.00000000
5      0.27456176
6     -1.04610873
7     -0.00000000
8     -0.00000000
9      0.38588872
10      0.13709716
11      0.90883085
12      0.13709716
13      0.90883085
Ene=      0.04739000
Spin= Beta
Occup=      0.00000000
1      0.00000000
2     -0.00000000
3     -0.32059926
4      0.32059926
5      0.00000000
6     -0.00000000
7     -0.44346338
8      0.44346338
9      0.00000000
10     -0.14191536
11     -1.22135301
12      0.14191536
13      1.22135301
Ene=      0.66812025
Spin= Beta
Occup=      0.00000000
1     -0.00000000
2      0.00000001
3      0.64549385
4      0.64549385
5      0.00000001
6      0.00000001
7     -0.75747709
8     -0.75747709
9      0.00000000
10     -0.00000000
11     -0.00000000
12     -0.00000000
13     -0.00000000
Ene=      0.71701832
Spin= Beta
Occup=      0.00000000
1     -0.01138072
2      0.04569287
3      0.00000000
4      0.00000000
5      0.93755686
6      0.26623251
7      0.00000000
8      0.00000000
9     -1.02551860
10      0.26880089
11     -0.45642510
12      0.26880089
13     -0.45642510
Ene=      0.70572420
Spin= Beta
Occup=      0.00000000
1     -0.00000000
2     -0.00000000
3     -0.12683632
4      0.12683632
5      0.00000000
6      0.00000000
7     -0.38169351
8      0.38169351
9     -0.00000000
10     -0.98283154
11      0.67285775
12      0.98283154
13     -0.67285775
Ene=      0.81344745
Spin= Beta
Occup=      0.00000000
1      0.08295672
2     -0.59807368
3     -0.00000000
4     -0.00000000
5     -0.09646204
6      0.40721404
7     -0.00000000
8     -0.00000000
9      0.66008482
10      0.92063530
11     -0.51729728
12      0.92063530
13     -0.51729728
Ene=      0.89519420
Spin= Beta
Occup=      0.00000000
1     -0.00000000
2      0.00000000
3      0.66533423
4     -0.66533423
5      0.00000000
6     -0.00000000
7     -1.23056012
8      1.23056012
9      0.00000000
10     -0.01420378
11     -1.05028638
12      0.01420378
13      1.05028638
Ene=      1.24103781
Spin= Beta
Occup=      0.00000000
1      0.04438082
2     -1.62817338
3     -0.00000000
4     -0.00000000
5      0.15219751
6      2.82278281
7     -0.00000000
8     -0.00000000
9     -0.89505471
10     -0.53888217
11     -0.62598584
12     -0.53888217
13     -0.62598584
