[Molden Format]
[Atoms] AU
O  1 8   0.00000000   0.00000000  -0.07759509
H  2 1  -1.00759125   1.00759125  -1.16117854
H  3 1   1.00759125  -1.00759125  -1.16117854
[GTO]
1
s 6
    5.484671875000e+03     1.831074478105e-03
    8.252349243164e+02     1.395017188042e-02
    1.880469512939e+02     6.844507902861e-02
    5.296450042725e+01     2.327143400908e-01
    1.689756965637e+01     4.701929092407e-01
    5.799635410309e+00     3.585208654404e-01
s 3
    1.553961658478e+01    -1.107775494456e-01
    3.599933624268e+00    -1.480262577534e-01
    1.013761758804e+00     1.130766987801e+00
p 3
    1.553961658478e+01     7.087426632643e-02
    3.599933624268e+00     3.397528529167e-01
    1.013761758804e+00     7.271586060524e-01
s 1
    2.700058221817e-01     1.000000000000e+00
p 1
    2.700058221817e-01     1.000000000000e+00

2
s 3
    1.873113632202e+01     3.349460288882e-02
    2.825394392014e+00     2.347269505262e-01
    6.401216983795e-01     8.137573003769e-01
s 1
    1.612777560949e-01     1.000000000000e+00

3
s 3
    1.873113632202e+01     3.349460288882e-02
    2.825394392014e+00     2.347269505262e-01
    6.401216983795e-01     8.137573003769e-01
s 1
    1.612777560949e-01     1.000000000000e+00

[MO]
Ene=    -18.74684958
Spin= Alpha
Occup=      2.00000000
1     -0.99483017
2     -0.02927518
3      0.00000000
4     -0.00000000
5      0.00261568
6      0.01429987
7     -0.00000000
8     -0.00000000
9     -0.00261766
10     -0.00020231
11     -0.00342643
12     -0.00020231
13     -0.00342643
Ene=     -0.93079114
Spin= Alpha
Occup=      2.00000000
1     -0.20492473
2      0.45137345
3     -0.00000000
4      0.00000000
5     -0.18404656
6      0.42598037
7     -0.00000000
8      0.00000000
9     -0.08693893
10      0.16151860
11      0.00349061
12      0.16151860
13      0.00349061
Ene=     -0.48060190
Spin= Alpha
Occup=      2.00000000
1     -0.00000000
2      0.00000000
3      0.36679579
4     -0.36679579
5      0.00000000
6      0.00000000
7      0.16006167
8     -0.16006167
9      0.00000000
10     -0.27065442
11     -0.14810707
12      0.27065442
13      0.14810707
Ene=     -0.29328140
Spin= Alpha
Occup=      2.00000000
1     -0.10111632
2      0.22398265
3     -0.00000000
4      0.00000000
5      0.53666838
6      0.40287114
7      0.00000000
8     -0.00000000
9      0.37323285
10     -0.13269297
11     -0.10486819
12     -0.13269297
13     -0.10486819
Ene=     -0.22810520
Spin= Alpha
Occup=      2.00000000
1     -0.00000000
2      0.00000000
3     -0.45475782
4     -0.45475782
5      0.00000000
6     -0.00000000
7     -0.35947651
8     -0.35947651
9      0.00000000
10      0.00000000
11      0.00000000
12     -0.00000000
13     -0.00000000
Ene=      0.03978865
Spin= Alpha
Occup=      0.00000000
1     -0.09035294
2      0.18287897
3      0.00000000
4     -0.00000000
5     -0.31247167
6      1.06721724
7      0.00000000
8     -0.00000000
9     -0.41479433
10     -0.11415609
11     -0.91993229
12     -0.11415609
13     -0.91993229
Ene=      0.12777250
Spin= Alpha
Occup=      0.00000000
1     -0.00000000
2      0.00000000
3     -0.31208251
4      0.31208251
5     -0.00000000
6      0.00000000
7     -0.52042235
8      0.52042235
9     -0.00000000
10     -0.11051832
11     -1.27690924
12      0.11051832
13      1.27690924
Ene=      0.77669529
Spin= Alpha
Occup=      0.00000000
1      0.00000000
2     -0.00000000
3     -0.15052723
4      0.15052723
5      0.00000000
6      0.00000000
7     -0.37184642
8      0.37184642
9     -0.00000000
10     -0.97829620
11      0.67628179
12      0.97829620
13     -0.67628179
Ene=      0.83080653
Spin= Alpha
Occup=      0.00000000
1      0.03395058
2     -0.23942888
3     -0.00000000
4     -0.00000000
5      0.76523869
6      0.36830477
7      0.00000000
8      0.00000000
9     -0.49049896
10      0.72001698
11     -0.63673124
12      0.72001698
13     -0.63673124
Ene=      0.84211255
Spin= Alpha
Occup=      0.00000000
1      0.00000000
2     -0.00000000
3      0.67913067
4      0.67913067
5      0.00000000
6      0.00000000
7     -0.73402986
8     -0.73402986
9     -0.00000000
10      0.00000000
11     -0.00000000
12      0.00000000
13     -0.00000000
Ene=      0.90997979
Spin= Alpha
Occup=      0.00000000
1     -0.07740970
2      0.40865520
3     -0.00000000
4      0.00000000
5      0.59514634
6      0.04962794
7      0.00000000
8     -0.00000000
9     -1.16645144
10     -0.68680956
11      0.13598908
12     -0.68680956
13      0.13598908
Ene=      1.01809100
Spin= Alpha
Occup=      0.00000000
1      0.00000000
2     -0.00000000
3     -0.68761030
4      0.68761030
5     -0.00000000
6      0.00000000
7      1.20674833
8     -1.20674833
9      0.00000000
10      0.02762833
11      0.97181914
12     -0.02762833
13     -0.97181914
Ene=      1.36618867
Spin= Alpha
Occup=      0.00000000
1      0.05478765
2     -1.68008033
3      0.00000000
4     -0.00000000
5      0.12191385
6      2.82150046
7     -0.00000000
8      0.00000000
9     -0.81120981
10     -0.46705503
11     -0.64450915
12     -0.46705503
13     -0.64450915
